/*--------------------------------*- C++ -*----------------------------------*\
  =========                 |
  \\      /  F ield         | OpenFOAM: The Open Source CFD Toolbox
   \\    /   O peration     | Website:  https://openfoam.org
    \\  /    A nd           | Version:  7
     \\/     M anipulation  |
\*---------------------------------------------------------------------------*/
FoamFile
{
    version     2.0;
    format      ascii;
    class       volScalarField;
    location    "0.4";
    object      p;
}
// * * * * * * * * * * * * * * * * * * * * * * * * * * * * * * * * * * * * * //

dimensions      [0 2 -2 0 0 0 0];

internalField   nonuniform List<scalar> 
400
(
1.07136e-08
-2.03969e-06
-8.10421e-06
-1.68902e-05
-2.69411e-05
-3.7271e-05
-4.72936e-05
-5.67277e-05
-6.55827e-05
-7.40964e-05
-8.26279e-05
-9.15458e-05
-0.00010112
-0.00011142
-0.000122244
-0.000133176
-0.00014322
-0.00015134
-0.000156128
-0.000156854
1.34367e-05
9.20807e-06
2.59586e-06
-6.12769e-06
-1.61833e-05
-2.70322e-05
-3.82991e-05
-4.97579e-05
-6.13151e-05
-7.29717e-05
-8.47738e-05
-9.67574e-05
-0.000108897
-0.00012106
-0.00013298
-0.00014425
-0.000154309
-0.000162497
-0.000168116
-0.000170711
3.98085e-05
3.08433e-05
2.03221e-05
8.66928e-06
-3.9277e-06
-1.70816e-05
-3.04894e-05
-4.4016e-05
-5.76514e-05
-7.14565e-05
-8.55149e-05
-9.98833e-05
-0.000114544
-0.000129366
-0.000144081
-0.000158274
-0.000171382
-0.000182798
-0.000192101
-0.000198897
7.82761e-05
6.17276e-05
4.48152e-05
2.81157e-05
1.13372e-05
-5.26656e-06
-2.14975e-05
-3.74024e-05
-5.31892e-05
-6.91393e-05
-8.55404e-05
-0.000102622
-0.000120496
-0.000139106
-0.000158195
-0.000177284
-0.000195664
-0.000212596
-0.000227792
-0.000240675
0.000128419
9.98218e-05
7.3023e-05
4.88741e-05
2.63734e-05
5.56372e-06
-1.35605e-05
-3.14012e-05
-4.86055e-05
-6.59146e-05
-8.40576e-05
-0.000103653
-0.000125112
-0.000148559
-0.000173777
-0.000200153
-0.000226667
-0.000252226
-0.000276533
-0.000298579
0.000189424
0.000141253
9.92225e-05
6.45419e-05
3.4876e-05
9.7966e-06
-1.11428e-05
-2.90279e-05
-4.53242e-05
-6.16255e-05
-7.94868e-05
-0.000100268
-0.00012497
-0.000154095
-0.00018754
-0.000224485
-0.00026335
-0.000302369
-0.00034108
-0.000377665
0.000256374
0.000176455
0.000111212
6.21681e-05
2.43999e-05
-3.55865e-06
-2.30537e-05
-3.64168e-05
-4.65495e-05
-5.65294e-05
-6.93541e-05
-8.77278e-05
-0.000113759
-0.000148718
-0.000192814
-0.000244961
-0.000302659
-0.000362932
-0.000424903
-0.000485265
0.00031436
0.000183934
8.41108e-05
1.63797e-05
-2.90652e-05
-5.57771e-05
-6.67656e-05
-6.64663e-05
-6.01353e-05
-5.32833e-05
-5.12962e-05
-5.92545e-05
-8.13312e-05
-0.000120371
-0.000177425
-0.000251233
-0.000337881
-0.000432317
-0.000532747
-0.000633024
0.000328057
0.000119575
-3.01529e-05
-0.000120729
-0.00017079
-0.000187728
-0.000177316
-0.000147205
-0.000106171
-6.34071e-05
-2.80207e-05
-9.14873e-06
-1.48161e-05
-5.1168e-05
-0.000121499
-0.000225054
-0.000356099
-0.000506222
-0.000671794
-0.000841109
0.000223199
-0.000101381
-0.000320331
-0.000436829
-0.000484701
-0.000477798
-0.000425903
-0.000340884
-0.000236009
-0.00012535
-2.33224e-05
5.45102e-05
9.29302e-05
7.88367e-05
3.09745e-06
-0.000136655
-0.000333448
-0.000574114
-0.000851872
-0.00114413
-0.000143764
-0.000632464
-0.000943048
-0.00108723
-0.00112343
-0.00107531
-0.000957392
-0.00078556
-0.000577006
-0.0003506
-0.000127206
6.96123e-05
0.000211172
0.000270085
0.00022271
5.54203e-05
-0.000228332
-0.000611055
-0.00108207
-0.00159758
-0.00102887
-0.00173432
-0.00216033
-0.00233581
-0.00235613
-0.00225829
-0.00206048
-0.00177908
-0.00143018
-0.00103301
-0.00061276
-0.000193857
0.000169705
0.000423395
0.000509731
0.000381516
2.02524e-05
-0.000562567
-0.00135707
-0.00227871
-0.00284709
-0.00381381
-0.00437894
-0.00460185
-0.00462905
-0.00451406
-0.00427493
-0.00391949
-0.00344888
-0.00286504
-0.0021801
-0.0014018
-0.000608316
0.00010193
0.000599736
0.000749814
0.000454315
-0.000328091
-0.00161949
-0.0032627
-0.00618897
-0.00743318
-0.0081592
-0.00847486
-0.00859294
-0.00858821
-0.00847432
-0.00823729
-0.00783806
-0.00721651
-0.00631122
-0.00511924
-0.00364489
-0.00202299
-0.000502956
0.000583581
0.00090858
0.000218471
-0.00167514
-0.00452328
-0.0117496
-0.0132405
-0.0141357
-0.0146159
-0.0149821
-0.0153454
-0.0157201
-0.0160629
-0.0162701
-0.0161743
-0.0155571
-0.0142024
-0.011992
-0.00894319
-0.00538205
-0.00194744
0.000514815
0.00110837
-0.000982508
-0.0055563
-0.0201159
-0.0217732
-0.0227633
-0.0233882
-0.0240983
-0.0250869
-0.026395
-0.0279627
-0.0296166
-0.0310446
-0.0317818
-0.0312506
-0.0289412
-0.0244938
-0.0179777
-0.0101823
-0.00269356
0.00218312
0.00186356
-0.00415872
-0.0316472
-0.0332984
-0.0339396
-0.0342396
-0.0349659
-0.0364405
-0.0387498
-0.0418365
-0.0454746
-0.0492196
-0.0523704
-0.0539474
-0.0527232
-0.0477923
-0.0384487
-0.0249733
-0.00925153
0.00458266
0.0107092
0.00653134
-0.0477561
-0.0486712
-0.0470585
-0.0450759
-0.0442955
-0.0451189
-0.0475652
-0.0515007
-0.0565872
-0.0621982
-0.0673881
-0.0709221
-0.0709249
-0.065587
-0.0534991
-0.0338626
-0.00775099
0.0199427
0.0403062
0.0468371
-0.0723875
-0.0654371
-0.057825
-0.0523297
-0.04922
-0.0484386
-0.0499514
-0.0535276
-0.0586355
-0.0643935
-0.0695139
-0.0722828
-0.0705329
-0.0611337
-0.0418015
-0.0106754
0.0324307
0.0840839
0.137175
0.178586
-0.222823
-0.126217
-0.0736723
-0.0497992
-0.0382015
-0.0332182
-0.0330019
-0.0362026
-0.041405
-0.0470852
-0.0514791
-0.0524338
-0.0474177
-0.0334061
-0.0052362
0.0423336
0.113945
0.210893
0.330268
0.468638
)
;

boundaryField
{
    movingWall
    {
        type            zeroGradient;
    }
    fixedWalls
    {
        type            zeroGradient;
    }
    frontAndBack
    {
        type            empty;
    }
}


// ************************************************************************* //
