/*--------------------------------*- C++ -*----------------------------------*\
  =========                 |
  \\      /  F ield         | OpenFOAM: The Open Source CFD Toolbox
   \\    /   O peration     | Website:  https://openfoam.org
    \\  /    A nd           | Version:  7
     \\/     M anipulation  |
\*---------------------------------------------------------------------------*/
FoamFile
{
    version     2.0;
    format      ascii;
    class       surfaceScalarField;
    location    "0.4";
    object      phi;
}
// * * * * * * * * * * * * * * * * * * * * * * * * * * * * * * * * * * * * * //

dimensions      [0 3 -1 0 0 0 0];

internalField   nonuniform List<scalar> 
760
(
7.69277e-10
-7.70361e-10
1.56402e-09
-7.94267e-10
1.5611e-09
2.81332e-12
5.92884e-10
9.68232e-10
-1.18923e-09
1.78233e-09
-3.42339e-09
2.23451e-09
-5.67107e-09
2.24809e-09
-7.51648e-09
1.84583e-09
-8.63507e-09
1.11899e-09
-8.83589e-09
2.01137e-10
-8.08232e-09
-7.53328e-10
-6.4944e-09
-1.5878e-09
-4.33338e-09
-2.16107e-09
-1.96849e-09
-2.36509e-09
1.75772e-10
-2.14449e-09
1.69496e-09
-1.51931e-09
2.29691e-09
-6.01862e-10
1.92033e-09
3.76828e-10
8.6603e-10
1.05456e-09
8.6616e-10
1.43426e-12
-7.7157e-10
-1.33262e-09
5.39135e-10
-4.5357e-09
3.20532e-09
-9.53223e-09
5.96441e-09
-1.57529e-08
8.00274e-09
-2.23821e-08
8.86353e-09
-2.85276e-08
8.39357e-09
-3.3368e-08
6.68619e-09
-3.62673e-08
4.01821e-09
-3.6853e-08
7.86725e-10
-3.50569e-08
-2.54959e-09
-3.11196e-08
-5.52522e-09
-2.55606e-08
-7.72024e-09
-1.91132e-08
-8.81235e-09
-1.26281e-08
-8.62926e-09
-6.94688e-09
-7.1999e-09
-2.74804e-09
-4.79985e-09
-3.85647e-10
-1.98462e-09
2.7982e-10
3.90005e-10
1.14551e-09
-1.1983e-09
4.26656e-10
-5.85377e-09
5.1949e-09
-1.3999e-08
1.13511e-08
-2.49253e-08
1.68914e-08
-3.74306e-08
2.05087e-08
-5.00728e-08
2.15063e-08
-6.13938e-08
1.97151e-08
-7.01088e-08
1.54017e-08
-7.5251e-08
9.16055e-09
-7.62689e-08
1.8045e-09
-7.30768e-08
-5.742e-09
-6.6058e-08
-1.25443e-08
-5.60216e-08
-1.77569e-08
-4.41133e-08
-2.07207e-08
-3.1683e-08
-2.10595e-08
-2.01141e-08
-1.87688e-08
-1.06246e-08
-1.42894e-08
-4.05776e-09
-8.5517e-09
-6.77308e-10
-2.99057e-09
4.68409e-10
-2.86101e-09
3.28742e-09
-1.22721e-08
1.46062e-08
-2.76124e-08
2.66915e-08
-4.72558e-08
3.65348e-08
-6.90084e-08
4.22614e-08
-9.04696e-08
4.29674e-08
-1.09334e-07
3.858e-08
-1.23639e-07
2.9706e-08
-1.31941e-07
1.74624e-08
-1.33441e-07
3.30481e-09
-1.28044e-07
-1.11396e-08
-1.16355e-07
-2.42334e-08
-9.96228e-08
-3.44884e-08
-7.96181e-08
-4.07252e-08
-5.84478e-08
-4.22296e-08
-3.83202e-08
-3.88964e-08
-2.12664e-08
-3.13435e-08
-8.84267e-09
-2.09759e-08
-1.83755e-09
-9.99596e-09
-1.36834e-09
-5.48818e-09
8.77608e-09
-2.23966e-08
3.15149e-08
-4.90209e-08
5.3316e-08
-8.22776e-08
6.97917e-08
-1.18415e-07
7.83989e-08
-1.53544e-07
7.80958e-08
-1.84053e-07
6.90885e-08
-2.06933e-07
5.25862e-08
-2.20014e-07
3.05433e-08
-2.22116e-07
5.40661e-09
-2.13128e-07
-2.01278e-08
-1.94009e-07
-4.33524e-08
-1.66707e-07
-6.17903e-08
-1.33987e-07
-7.34443e-08
-9.91711e-08
-7.70456e-08
-6.57823e-08
-7.22851e-08
-3.713e-08
-5.99958e-08
-1.58564e-08
-4.22493e-08
-3.48701e-09
-2.23651e-08
-4.85558e-09
-9.96522e-09
1.87414e-08
-3.92831e-08
6.08328e-08
-8.42752e-08
9.8308e-08
-1.39434e-07
1.2495e-07
-1.98525e-07
1.3749e-07
-2.55346e-07
1.34916e-07
-3.04281e-07
1.18022e-07
-3.40718e-07
8.90232e-08
-3.61356e-07
5.11816e-08
-3.64404e-07
8.45487e-09
-3.49696e-07
-3.48362e-08
-3.18709e-07
-7.4339e-08
-2.74472e-07
-1.06027e-07
-2.2133e-07
-1.26586e-07
-1.6456e-07
-1.33816e-07
-1.09829e-07
-1.27016e-07
-6.25317e-08
-1.07293e-07
-2.70682e-08
-7.77119e-08
-6.12535e-09
-4.33071e-08
-1.0982e-08
-1.76363e-08
3.63776e-08
-6.75509e-08
1.10747e-07
-1.42463e-07
1.7322e-07
-2.32842e-07
2.15329e-07
-3.28549e-07
2.33197e-07
-4.19846e-07
2.26213e-07
-4.98094e-07
1.9627e-07
-5.56257e-07
1.47186e-07
-5.89269e-07
8.41937e-08
-5.9431e-07
1.34959e-08
-5.70988e-07
-5.81574e-08
-5.21446e-07
-1.23881e-07
-4.50286e-07
-1.77188e-07
-3.64295e-07
-2.12578e-07
-2.71891e-07
-2.2622e-07
-1.82281e-07
-2.16626e-07
-1.04372e-07
-1.85203e-07
-4.55494e-08
-1.36534e-07
-1.04779e-08
-7.83788e-08
-2.14601e-08
-3.05345e-08
6.69121e-08
-1.14039e-07
1.94252e-07
-2.36875e-07
2.96056e-07
-3.83026e-07
3.61479e-07
-5.36389e-07
3.8656e-07
-6.82007e-07
3.7183e-07
-8.06816e-07
3.21079e-07
-9.00166e-07
2.40536e-07
-9.5422e-07
1.38248e-07
-9.64334e-07
2.36097e-08
-9.29365e-07
-9.3126e-08
-8.52034e-07
-2.01213e-07
-7.39001e-07
-2.9022e-07
-6.00657e-07
-3.50922e-07
-4.50406e-07
-3.76471e-07
-3.03364e-07
-3.63668e-07
-1.74517e-07
-3.14049e-07
-7.65679e-08
-2.34485e-07
-1.77655e-08
-1.37183e-07
-3.9225e-08
-5.1637e-08
1.18549e-07
-1.88471e-07
3.31086e-07
-3.8612e-07
4.93704e-07
-6.18529e-07
5.93889e-07
-8.60913e-07
6.28943e-07
-1.09097e-06
6.01885e-07
-1.28943e-06
5.19541e-07
-1.4404e-06
3.91502e-07
-1.53166e-06
2.29515e-07
-1.55522e-06
4.71662e-08
-1.50779e-06
-1.40552e-07
-1.39183e-06
-3.17177e-07
-1.21607e-06
-4.65977e-07
-9.95779e-07
-5.71218e-07
-7.52019e-07
-6.20231e-07
-5.09809e-07
-6.05878e-07
-2.94957e-07
-5.289e-07
-1.30064e-07
-3.99379e-07
-3.03467e-08
-2.369e-07
-6.95718e-08
-8.49523e-08
2.03501e-07
-3.03493e-07
5.49627e-07
-6.13974e-07
8.04186e-07
-9.75653e-07
9.55568e-07
-1.35187e-06
1.00516e-06
-1.7107e-06
9.60707e-07
-2.02469e-06
8.33536e-07
-2.27063e-06
6.37444e-07
-2.42948e-06
3.88367e-07
-2.48701e-06
1.04691e-07
-2.43469e-06
-1.9287e-07
-2.27189e-06
-4.79982e-07
-2.00786e-06
-7.30002e-07
-1.66323e-06
-9.15843e-07
-1.27012e-06
-1.01335e-06
-8.69827e-07
-1.00617e-06
-5.07725e-07
-8.91002e-07
-2.25579e-07
-6.81525e-07
-5.30321e-08
-4.09446e-07
-1.22604e-07
-1.35047e-07
3.38548e-07
-4.72851e-07
8.87432e-07
-9.45742e-07
1.27708e-06
-1.49296e-06
1.50279e-06
-2.06299e-06
1.57519e-06
-2.61245e-06
1.51017e-06
-3.10416e-06
1.32525e-06
-3.50533e-06
1.03861e-06
-3.78662e-06
6.69665e-07
-3.92271e-06
2.4078e-07
-3.894e-06
-2.21584e-07
-3.68972e-06
-6.84264e-07
-3.31437e-06
-1.10534e-06
-2.79148e-06
-1.43874e-06
-2.16672e-06
-1.63811e-06
-1.50676e-06
-1.66613e-06
-8.91733e-07
-1.50603e-06
-4.01096e-07
-1.17216e-06
-9.55529e-08
-7.14989e-07
-2.18157e-07
-2.05336e-07
5.43884e-07
-7.05828e-07
1.38792e-06
-1.39769e-06
1.96894e-06
-2.1953e-06
2.30039e-06
-3.03062e-06
2.41051e-06
-3.84871e-06
2.32827e-06
-4.60243e-06
2.07896e-06
-5.24784e-06
1.68402e-06
-5.74135e-06
1.16318e-06
-6.03946e-06
5.38882e-07
-6.10321e-06
-1.57828e-07
-5.89699e-06
-8.90491e-07
-5.40916e-06
-1.59317e-06
-4.65632e-06
-2.19157e-06
-3.69485e-06
-2.59958e-06
-2.62534e-06
-2.73564e-06
-1.58539e-06
-2.54598e-06
-7.26527e-07
-2.03102e-06
-1.76701e-07
-1.26482e-06
-3.94859e-07
-2.9452e-07
8.38404e-07
-9.96341e-07
2.08974e-06
-1.95662e-06
2.92922e-06
-3.06216e-06
3.40593e-06
-4.22947e-06
3.57782e-06
-5.39481e-06
3.49361e-06
-6.50374e-06
3.18789e-06
-7.50207e-06
2.68234e-06
-8.32958e-06
1.99069e-06
-8.91754e-06
1.12684e-06
-9.19666e-06
1.21295e-07
-9.08947e-06
-9.97683e-07
-8.54709e-06
-2.13555e-06
-7.55687e-06
-3.1818e-06
-6.16797e-06
-3.98848e-06
-4.51104e-06
-4.39257e-06
-2.80275e-06
-4.25428e-06
-1.31975e-06
-3.51402e-06
-3.30608e-07
-2.25396e-06
-7.25467e-07
-3.91963e-07
1.23037e-06
-1.30906e-06
3.00684e-06
-2.55278e-06
4.17294e-06
-3.98273e-06
4.83588e-06
-5.5041e-06
5.09919e-06
-7.05076e-06
5.04027e-06
-8.56796e-06
4.70509e-06
-9.99739e-06
4.11178e-06
-1.12665e-05
3.25977e-06
-1.22829e-05
2.14328e-06
-1.29303e-05
7.68687e-07
-1.30982e-05
-8.29807e-07
-1.26672e-05
-2.56657e-06
-1.15601e-05
-4.28881e-06
-9.77426e-06
-5.77435e-06
-7.4285e-06
-6.73833e-06
-4.80567e-06
-6.87711e-06
-2.35704e-06
-5.96265e-06
-6.16964e-07
-3.99404e-06
-1.34243e-06
-4.77121e-07
1.70749e-06
-1.57607e-06
4.10579e-06
-3.04694e-06
5.64381e-06
-4.72307e-06
6.51202e-06
-6.50422e-06
6.88033e-06
-8.33137e-06
6.86743e-06
-1.01617e-05
6.53546e-06
-1.19482e-05
5.89821e-06
-1.36241e-05
4.93571e-06
-1.50939e-05
3.61308e-06
-1.62277e-05
1.90248e-06
-1.6863e-05
-1.94536e-07
-1.68305e-05
-2.59901e-06
-1.59515e-05
-5.16784e-06
-1.41011e-05
-7.62476e-06
-1.12819e-05
-9.55756e-06
-7.73323e-06
-1.04258e-05
-4.04078e-06
-9.6551e-06
-1.13671e-06
-6.8981e-06
-2.47915e-06
-5.41196e-07
2.24868e-06
-1.74643e-06
5.31102e-06
-3.2956e-06
7.19298e-06
-4.99028e-06
8.2067e-06
-6.73334e-06
8.62339e-06
-8.48816e-06
8.62225e-06
-1.02441e-05
8.29142e-06
-1.19928e-05
7.64689e-06
-1.37115e-05
6.65439e-06
-1.53503e-05
5.25186e-06
-1.68202e-05
3.37238e-06
-1.79722e-05
9.57465e-07
-1.862e-05
-1.95121e-06
-1.85126e-05
-5.27519e-06
-1.73522e-05
-8.78518e-06
-1.48878e-05
-1.2022e-05
-1.10788e-05
-1.42348e-05
-6.37518e-06
-1.43587e-05
-2.02528e-06
-1.1248e-05
-4.50443e-06
-6.76036e-07
2.92472e-06
-1.96602e-06
6.601e-06
-3.37687e-06
8.60384e-06
-4.69426e-06
9.52409e-06
-5.86275e-06
9.79188e-06
-6.89691e-06
9.65642e-06
-7.84306e-06
9.23757e-06
-8.76168e-06
8.5655e-06
-9.71559e-06
7.6083e-06
-1.07582e-05
6.29443e-06
-1.19187e-05
4.53293e-06
-1.31904e-05
2.22918e-06
-1.44277e-05
-7.1396e-07
-1.54526e-05
-4.2503e-06
-1.58722e-05
-8.3655e-06
-1.51602e-05
-1.2734e-05
-1.27648e-05
-1.66301e-05
-8.49256e-06
-1.8631e-05
-3.27043e-06
-1.64701e-05
-7.77486e-06
-1.32259e-06
4.24731e-06
-3.04503e-06
8.32344e-06
-4.13151e-06
9.69031e-06
-4.47494e-06
9.86752e-06
-4.23961e-06
9.55655e-06
-3.60745e-06
9.02426e-06
-2.74338e-06
8.37349e-06
-1.80245e-06
7.62458e-06
-9.39106e-07
6.74495e-06
-3.13044e-07
5.66837e-06
-8.68235e-08
4.30671e-06
-4.14394e-07
2.55675e-06
-1.43218e-06
3.03827e-07
-3.11707e-06
-2.5654e-06
-5.30083e-06
-6.18174e-06
-7.47149e-06
-1.05633e-05
-8.69023e-06
-1.54114e-05
-7.77371e-06
-1.95475e-05
-4.10146e-06
-2.01424e-05
-1.18763e-05
-3.29318e-06
7.54049e-06
-4.49509e-06
9.52535e-06
-3.37144e-06
8.56666e-06
-9.08325e-07
7.40441e-06
2.24096e-06
6.40727e-06
5.70568e-06
5.55954e-06
9.24363e-06
4.83554e-06
1.2674e-05
4.19417e-06
1.58374e-05
3.58161e-06
1.85659e-05
2.93986e-06
2.06609e-05
2.21169e-06
2.18708e-05
1.3469e-06
2.18284e-05
3.46233e-07
2.04381e-05
-1.1751e-06
1.74126e-05
-3.15632e-06
1.26734e-05
-5.82413e-06
6.66557e-06
-9.40353e-06
8.49932e-07
-1.37319e-05
-1.99129e-06
-1.73011e-05
-1.38676e-05
7.54049e-06
1.70658e-05
2.56325e-05
3.30369e-05
3.94442e-05
4.50037e-05
4.98393e-05
5.40334e-05
5.7615e-05
6.05549e-05
6.27666e-05
6.41135e-05
6.44597e-05
6.32846e-05
6.01283e-05
5.43042e-05
4.49006e-05
3.11688e-05
1.38676e-05
)
;

boundaryField
{
    movingWall
    {
        type            calculated;
        value           uniform 0;
    }
    fixedWalls
    {
        type            calculated;
        value           uniform 0;
    }
    frontAndBack
    {
        type            empty;
        value           nonuniform 0();
    }
}


// ************************************************************************* //
