/*--------------------------------*- C++ -*----------------------------------*\
  =========                 |
  \\      /  F ield         | OpenFOAM: The Open Source CFD Toolbox
   \\    /   O peration     | Website:  https://openfoam.org
    \\  /    A nd           | Version:  7
     \\/     M anipulation  |
\*---------------------------------------------------------------------------*/
FoamFile
{
    version     2.0;
    format      ascii;
    class       volVectorField;
    location    "0.4";
    object      U;
}
// * * * * * * * * * * * * * * * * * * * * * * * * * * * * * * * * * * * * * //

dimensions      [0 1 -1 0 0 0 0];

internalField   nonuniform List<vector> 
400
(
(3.9489e-06 -1.01388e-05 0)
(1.29288e-05 -1.45357e-05 0)
(1.72436e-05 -9.75225e-06 0)
(1.27595e-05 -2.01117e-06 0)
(-1.58496e-06 5.13766e-06 0)
(-2.26599e-05 9.85362e-06 0)
(-4.60489e-05 1.14117e-05 0)
(-6.73445e-05 9.92721e-06 0)
(-8.27468e-05 6.06559e-06 0)
(-8.96053e-05 8.09509e-07 0)
(-8.67533e-05 -4.71202e-06 0)
(-7.46224e-05 -9.35901e-06 0)
(-5.51752e-05 -1.21036e-05 0)
(-3.16524e-05 -1.21595e-05 0)
(-8.12299e-06 -9.14079e-06 0)
(1.10109e-05 -3.2625e-06 0)
(2.19682e-05 4.48492e-06 0)
(2.27735e-05 1.19924e-05 0)
(1.49285e-05 1.57612e-05 0)
(4.66701e-06 1.04942e-05 0)
(1.83041e-06 -2.04742e-05 0)
(-2.29234e-06 -1.66904e-05 0)
(-2.47488e-05 1.08415e-05 0)
(-6.66734e-05 4.37303e-05 0)
(-0.000124508 7.03778e-05 0)
(-0.000190914 8.43261e-05 0)
(-0.000256938 8.31476e-05 0)
(-0.000313689 6.76406e-05 0)
(-0.000353648 4.09255e-05 0)
(-0.000371628 7.60134e-06 0)
(-0.000365371 -2.69895e-05 0)
(-0.000335768 -5.74196e-05 0)
(-0.000286733 -7.88008e-05 0)
(-0.000224725 -8.74102e-05 0)
(-0.000157934 -8.13502e-05 0)
(-9.51653e-05 -6.12454e-05 0)
(-4.44219e-05 -3.08558e-05 0)
(-1.12321e-05 2.25041e-06 0)
(3.11213e-06 2.62011e-05 0)
(2.88254e-06 2.42108e-05 0)
(-1.97676e-06 -1.00413e-05 0)
(-2.65006e-05 3.87906e-05 0)
(-9.0996e-05 0.000117492 0)
(-0.000189124 0.000194484 0)
(-0.000309751 0.000248885 0)
(-0.000439151 0.000269052 0)
(-0.000562422 0.000251336 0)
(-0.000665444 0.000198699 0)
(-0.000736649 0.000119065 0)
(-0.000768263 2.36498e-05 0)
(-0.000757033 -7.46376e-05 0)
(-0.000704495 -0.000162704 0)
(-0.00061677 -0.000228734 0)
(-0.000503905 -0.000263626 0)
(-0.000378757 -0.000262417 0)
(-0.000255447 -0.000225635 0)
(-0.000147424 -0.000160443 0)
(-6.54436e-05 -8.13836e-05 0)
(-1.60945e-05 -1.07322e-05 0)
(-3.27979e-08 2.1326e-05 0)
(-7.00965e-06 2.72867e-05 0)
(-6.02659e-05 0.0001701 0)
(-0.000185738 0.000338134 0)
(-0.000366163 0.000482889 0)
(-0.000579182 0.000573123 0)
(-0.000801167 0.000592659 0)
(-0.00100816 0.000538416 0)
(-0.0011783 0.000418134 0)
(-0.00129417 0.000247714 0)
(-0.00134433 4.84899e-05 0)
(-0.00132423 -0.000155434 0)
(-0.0012365 -0.000339735 0)
(-0.00109062 -0.000482379 0)
(-0.000902063 -0.000566094 0)
(-0.000690751 -0.000580781 0)
(-0.000478889 -0.000525738 0)
(-0.000288229 -0.000411449 0)
(-0.000137327 -0.0002606 0)
(-4.00988e-05 -0.00010829 0)
(-3.15947e-06 -1.83126e-06 0)
(-1.50411e-05 0.00010456 0)
(-0.000113689 0.00041617 0)
(-0.00033507 0.000732454 0)
(-0.000644282 0.000981759 0)
(-0.00100128 0.00112053 0)
(-0.00136699 0.00112889 0)
(-0.00170346 0.00100705 0)
(-0.00197692 0.000771646 0)
(-0.00216097 0.000451523 0)
(-0.00223855 8.36472e-05 0)
(-0.00220312 -0.000290927 0)
(-0.002059 -0.000630954 0)
(-0.00182102 -0.000898882 0)
(-0.00151329 -0.00106476 0)
(-0.00116703 -0.00111011 0)
(-0.000817382 -0.0010314 0)
(-0.000499315 -0.000842917 0)
(-0.000243502 -0.000578222 0)
(-7.46194e-05 -0.000290319 0)
(-7.33293e-06 -5.12306e-05 0)
(-2.92579e-05 0.000248307 0)
(-0.000204059 0.000849285 0)
(-0.000582779 0.00140634 0)
(-0.00110033 0.00181642 0)
(-0.00168788 0.00202168 0)
(-0.00228215 0.00200048 0)
(-0.00282366 0.00176093 0)
(-0.00326046 0.0013349 0)
(-0.00355228 0.000771848 0)
(-0.00367326 0.000132779 0)
(-0.00361343 -0.000515396 0)
(-0.00337944 -0.0011055 0)
(-0.00299419 -0.0015759 0)
(-0.0024953 -0.00187655 0)
(-0.00193207 -0.00197513 0)
(-0.00136066 -0.00186278 0)
(-0.00083762 -0.0015586 0)
(-0.000413362 -0.001112 0)
(-0.000129789 -0.000602786 0)
(-1.40055e-05 -0.000140537 0)
(-5.45543e-05 0.000506704 0)
(-0.000357636 0.00159477 0)
(-0.000994864 0.00253839 0)
(-0.00184943 0.00319423 0)
(-0.00280591 0.00348991 0)
(-0.0037637 0.00340681 0)
(-0.00463087 0.0029687 0)
(-0.00532809 0.00223249 0)
(-0.00579395 0.00127936 0)
(-0.0059884 0.000206765 0)
(-0.00589504 -0.000879208 0)
(-0.00552255 -0.00187144 0)
(-0.00490502 -0.00267027 0)
(-0.0041004 -0.00319296 0)
(-0.00318649 -0.00338367 0)
(-0.00225375 -0.0032232 0)
(-0.00139476 -0.00273669 0)
(-0.000693391 -0.00199757 0)
(-0.000220838 -0.00112749 0)
(-2.50019e-05 -0.000294835 0)
(-9.85305e-05 0.000960895 0)
(-0.000613801 0.00285693 0)
(-0.00166843 0.00441418 0)
(-0.00305932 0.00544266 0)
(-0.00459765 0.00586041 0)
(-0.00612713 0.00566199 0)
(-0.00750858 0.00489949 0)
(-0.00862249 0.00366886 0)
(-0.0093753 0.00209833 0)
(-0.00970368 0.000338691 0)
(-0.00957787 -0.00144577 0)
(-0.00900519 -0.0030867 0)
(-0.00803255 -0.00442371 0)
(-0.00674631 -0.00531915 0)
(-0.00526798 -0.00567517 0)
(-0.00374393 -0.00545115 0)
(-0.00232824 -0.00467815 0)
(-0.00116367 -0.00346634 0)
(-0.000373704 -0.00200458 0)
(-4.3303e-05 -0.000556752 0)
(-0.000172698 0.00174162 0)
(-0.00102948 0.00495471 0)
(-0.00274035 0.00747171 0)
(-0.00496367 0.00905971 0)
(-0.00739961 0.00964335 0)
(-0.00981293 0.00924986 0)
(-0.0119988 0.00797873 0)
(-0.013781 0.00598315 0)
(-0.0150177 0.00345671 0)
(-0.0156064 0.000623969 0)
(-0.0154888 -0.00226775 0)
(-0.014659 -0.00495805 0)
(-0.0131714 -0.00718891 0)
(-0.0111466 -0.00872788 0)
(-0.0087695 -0.00939792 0)
(-0.0062764 -0.00911069 0)
(-0.00392793 -0.00789606 0)
(-0.00197452 -0.00591879 0)
(-0.000638188 -0.00347849 0)
(-7.50342e-05 -0.00100045 0)
(-0.000293131 0.00305036 0)
(-0.00168007 0.00836365 0)
(-0.00438675 0.0123532 0)
(-0.00785956 0.014772 0)
(-0.0116399 0.0155892 0)
(-0.0153879 0.0148987 0)
(-0.0188142 0.0128737 0)
(-0.0216664 0.0097442 0)
(-0.0237322 0.00578549 0)
(-0.024843 0.00131459 0)
(-0.0248816 -0.00331121 0)
(-0.023797 -0.00769924 0)
(-0.0216275 -0.0114358 0)
(-0.0185204 -0.0141218 0)
(-0.0147417 -0.015425 0)
(-0.0106673 -0.0151456 0)
(-0.00674206 -0.0132812 0)
(-0.00341881 -0.0100694 0)
(-0.00111485 -0.00599379 0)
(-0.000133599 -0.00176332 0)
(-0.00047892 0.00517862 0)
(-0.00264942 0.0137482 0)
(-0.00679636 0.0199422 0)
(-0.0120614 0.0235797 0)
(-0.0177746 0.0247489 0)
(-0.0234708 0.0236652 0)
(-0.0287624 0.0206081 0)
(-0.0333036 0.0158978 0)
(-0.036784 0.0098937 0)
(-0.0389276 0.00300834 0)
(-0.0395031 -0.00427489 0)
(-0.0383482 -0.0113898 0)
(-0.0354188 -0.0176828 0)
(-0.0308451 -0.0224651 0)
(-0.0249708 -0.0250971 0)
(-0.0183667 -0.0251176 0)
(-0.0117854 -0.0223903 0)
(-0.00605938 -0.0172196 0)
(-0.00200535 -0.0103876 0)
(-0.000248088 -0.00311402 0)
(-0.000745388 0.00850739 0)
(-0.00399672 0.0219469 0)
(-0.010092 0.0313394 0)
(-0.0177688 0.0367366 0)
(-0.0261008 0.0384765 0)
(-0.0344936 0.0369789 0)
(-0.0424644 0.0326637 0)
(-0.049568 0.0259354 0)
(-0.0553694 0.0172052 0)
(-0.0594323 0.00694111 0)
(-0.0613323 -0.00426969 0)
(-0.0606781 -0.0156639 0)
(-0.0572074 -0.0262543 0)
(-0.0509188 -0.0348748 0)
(-0.0421609 -0.0403014 0)
(-0.0317177 -0.0414858 0)
(-0.0208001 -0.0378745 0)
(-0.010917 -0.0297185 0)
(-0.00369615 -0.0182416 0)
(-0.00047957 -0.005586 0)
(-0.00108908 0.0134537 0)
(-0.00569019 0.0338446 0)
(-0.0141794 0.0476928 0)
(-0.0248102 0.0555681 0)
(-0.0363805 0.0582627 0)
(-0.0481909 0.056516 0)
(-0.0596971 0.0509204 0)
(-0.0703759 0.0419247 0)
(-0.0796627 0.0298999 0)
(-0.086916 0.0152509 0)
(-0.0914251 -0.00143312 0)
(-0.0924313 -0.0192179 0)
(-0.0892603 -0.0367434 0)
(-0.0815539 -0.0521477 0)
(-0.0694501 -0.0632011 0)
(-0.0538128 -0.0676629 0)
(-0.0363671 -0.0638887 0)
(-0.0196654 -0.0515888 0)
(-0.0068831 -0.032449 0)
(-0.000952619 -0.0102179 0)
(-0.00146835 0.0203267 0)
(-0.00752372 0.050065 0)
(-0.0185531 0.0697904 0)
(-0.0322945 0.0809967 0)
(-0.0472864 0.0852139 0)
(-0.0627817 0.0836562 0)
(-0.0782464 0.0771194 0)
(-0.0931499 0.0660229 0)
(-0.106855 0.0505424 0)
(-0.118533 0.0308162 0)
(-0.127128 0.00721363 0)
(-0.131472 -0.0193615 0)
(-0.130357 -0.0472158 0)
(-0.12274 -0.0736757 0)
(-0.108137 -0.0950807 0)
(-0.0870264 -0.107147 0)
(-0.0612942 -0.10586 0)
(-0.0346329 -0.0889928 0)
(-0.0127514 -0.0579791 0)
(-0.00192946 -0.018978 0)
(-0.00180548 0.0290986 0)
(-0.0091103 0.0704813 0)
(-0.0222356 0.0973604 0)
(-0.0384079 0.112628 0)
(-0.0559436 0.118915 0)
(-0.0741262 0.118118 0)
(-0.0925427 0.111292 0)
(-0.110792 0.0987507 0)
(-0.128333 0.0803051 0)
(-0.144361 0.055585 0)
(-0.157727 0.0244404 0)
(-0.166942 -0.0125991 0)
(-0.170299 -0.0538246 0)
(-0.16599 -0.0959763 0)
(-0.152411 -0.133937 0)
(-0.128779 -0.160724 0)
(-0.0959784 -0.16824 0)
(-0.0578862 -0.149428 0)
(-0.0231284 -0.10247 0)
(-0.00399348 -0.0354832 0)
(-0.00210742 0.0393373 0)
(-0.010257 0.093899 0)
(-0.024377 0.128357 0)
(-0.0410921 0.147598 0)
(-0.0585225 0.155838 0)
(-0.0761028 0.155928 0)
(-0.0937177 0.149296 0)
(-0.111333 0.136183 0)
(-0.128827 0.11599 0)
(-0.145857 0.0877193 0)
(-0.161715 0.0504597 0)
(-0.175193 0.00392858 0)
(-0.184606 -0.0509215 0)
(-0.187727 -0.111084 0)
(-0.181746 -0.170883 0)
(-0.163737 -0.221073 0)
(-0.131764 -0.248458 0)
(-0.0873013 -0.237297 0)
(-0.0397045 -0.175315 0)
(-0.00830032 -0.066036 0)
(-0.00296686 0.0511237 0)
(-0.0123656 0.118991 0)
(-0.0263081 0.159083 0)
(-0.04048 0.179654 0)
(-0.0530878 0.187494 0)
(-0.0640811 0.186871 0)
(-0.0739109 0.179816 0)
(-0.0831685 0.166687 0)
(-0.0924975 0.146677 0)
(-0.102502 0.118291 0)
(-0.113627 0.0798157 0)
(-0.125951 0.0297798 0)
(-0.138754 -0.0325395 0)
(-0.15051 -0.106132 0)
(-0.158266 -0.186877 0)
(-0.157321 -0.26581 0)
(-0.141866 -0.326453 0)
(-0.107868 -0.342693 0)
(-0.0594713 -0.28171 0)
(-0.0158965 -0.12101 0)
(-0.00689831 0.0672572 0)
(-0.0221301 0.143843 0)
(-0.0367483 0.182954 0)
(-0.0443701 0.199537 0)
(-0.0447363 0.202742 0)
(-0.0400376 0.198026 0)
(-0.0322393 0.188214 0)
(-0.0229524 0.174186 0)
(-0.0136911 0.155463 0)
(-0.00596461 0.130672 0)
(-0.00133004 0.0978849 0)
(-0.00155899 0.0548467 0)
(-0.00819052 -0.00087166 0)
(-0.0217702 -0.0716311 0)
(-0.0413607 -0.157895 0)
(-0.0636074 -0.256118 0)
(-0.0812092 -0.353492 0)
(-0.0844423 -0.419721 0)
(-0.0649912 -0.398957 0)
(-0.023438 -0.210205 0)
(-0.017599 0.135454 0)
(-0.0438692 0.208176 0)
(-0.0434157 0.208254 0)
(-0.02376 0.192054 0)
(0.00552827 0.173862 0)
(0.039257 0.156527 0)
(0.0746341 0.140455 0)
(0.109722 0.125103 0)
(0.142897 0.109365 0)
(0.172585 0.0918227 0)
(0.197041 0.070861 0)
(0.214039 0.0446871 0)
(0.220283 0.0113546 0)
(0.214005 -0.0315965 0)
(0.192898 -0.0885593 0)
(0.15516 -0.165427 0)
(0.101649 -0.264436 0)
(0.0381113 -0.369159 0)
(-0.0140323 -0.420819 0)
(-0.0118032 -0.287266 0)
(0.0932445 0.0944837 0)
(0.121817 0.131546 0)
(0.206412 0.125005 0)
(0.292034 0.109829 0)
(0.363622 0.094266 0)
(0.423589 0.080198 0)
(0.475268 0.0680319 0)
(0.520244 0.0576115 0)
(0.559053 0.0484782 0)
(0.591658 0.0400291 0)
(0.617496 0.031602 0)
(0.635543 0.0225066 0)
(0.643982 0.011989 0)
(0.640546 -0.000354608 0)
(0.620393 -0.01576 0)
(0.577965 -0.0362356 0)
(0.506943 -0.0646545 0)
(0.393709 -0.108217 0)
(0.232771 -0.165111 0)
(0.124965 -0.148562 0)
)
;

boundaryField
{
    movingWall
    {
        type            fixedValue;
        value           uniform (1 0 0);
    }
    fixedWalls
    {
        type            noSlip;
    }
    frontAndBack
    {
        type            empty;
    }
}


// ************************************************************************* //
