/*--------------------------------*- C++ -*----------------------------------*\
  =========                 |
  \\      /  F ield         | OpenFOAM: The Open Source CFD Toolbox
   \\    /   O peration     | Website:  https://openfoam.org
    \\  /    A nd           | Version:  7
     \\/     M anipulation  |
\*---------------------------------------------------------------------------*/
FoamFile
{
    version     2.0;
    format      ascii;
    class       volScalarField;
    location    "0.1";
    object      p;
}
// * * * * * * * * * * * * * * * * * * * * * * * * * * * * * * * * * * * * * //

dimensions      [0 2 -2 0 0 0 0];

internalField   nonuniform List<scalar> 
400
(
9.74078e-09
-0.000493033
-0.000619767
-0.000526316
-0.000203488
0.000379539
0.00125742
0.00246253
0.00402281
0.0059632
0.0083084
0.0110842
0.0143156
0.0180153
0.0221579
0.02662
0.0310976
0.035022
0.0375608
0.037838
0.000150445
-0.00029388
-0.000393111
-0.000310207
-1.04147e-05
0.000546003
0.00139635
0.00257417
0.0041076
0.00602094
0.00833738
0.0110803
0.0142715
0.0179207
0.0219992
0.0263891
0.0307975
0.0346822
0.037256
0.0376032
0.0002627
-0.000182384
-0.000267835
-0.000200887
7.2053e-05
0.000598324
0.00141848
0.00256731
0.00407269
0.00595761
0.00824334
0.0109514
0.0141027
0.0177097
0.0217526
0.0261321
0.0305808
0.0345739
0.0373045
0.0377249
0.000297825
-0.000174293
-0.000259991
-0.000213965
2.95001e-05
0.00052395
0.00131327
0.00243329
0.003911
0.00576731
0.00802099
0.0106917
0.0138014
0.0173696
0.0213949
0.0258102
0.0303893
0.0346259
0.0376506
0.0382528
0.000231209
-0.000274426
-0.000368171
-0.000346335
-0.000133657
0.000328786
0.00108801
0.00218048
0.00363163
0.00545945
0.0076794
0.0103088
0.0133711
0.0168954
0.0209047
0.0253771
0.0301476
0.0347433
0.0382176
0.0392153
4.1698e-05
-0.000497203
-0.000601467
-0.000604234
-0.000421505
1.07112e-05
0.000742365
0.00181018
0.00323736
0.00503808
0.00722337
0.00980727
0.0128138
0.0162827
0.020265
0.0247961
0.0297979
0.0348607
0.0389702
0.0407024
-0.00028534
-0.00085615
-0.000969078
-0.00099413
-0.00083866
-0.000433389
0.000274634
0.00132212
0.00272938
0.00450569
0.00665631
0.0091902
0.0121301
0.0155243
0.0194528
0.0240184
0.0292622
0.0348855
0.0398566
0.042857
-0.000761758
-0.00136247
-0.00147805
-0.00152075
-0.00138852
-0.00100596
-0.000316638
0.000716039
0.00210881
0.00386485
0.00598176
0.00846082
0.0113197
0.0146106
0.0184377
0.0229767
0.0284226
0.0346554
0.0407475
0.0458386
-0.00140131
-0.00202796
-0.00213541
-0.00218886
-0.00207473
-0.00170994
-0.00103349
-8.81284e-06
0.00137658
0.00311832
0.00520402
0.00762382
0.0103845
0.0135339
0.0171877
0.0215883
0.0271113
0.033892
0.0413287
0.0496889
-0.00222344
-0.00286747
-0.00294955
-0.0030042
-0.00290196
-0.00254929
-0.00187888
-0.000853773
0.000533553
0.00226954
0.0043291
0.00668701
0.00933169
0.0122937
0.015677
0.0197643
0.0251081
0.0321552
0.0409373
0.0540656
-0.00325719
-0.00390042
-0.00393042
-0.00397347
-0.00387568
-0.00352881
-0.00285644
-0.00182048
-0.000419097
0.00132322
0.0033656
0.00566307
0.00817649
0.0109031
0.0138995
0.0174314
0.0221667
0.0288746
0.038549
0.0580853
-0.00454674
-0.00515218
-0.00508909
-0.00510364
-0.00500169
-0.0046537
-0.00397
-0.00291028
-0.00147919
0.000286058
0.00232566
0.00457105
0.00694586
0.0093971
0.0118864
0.0145729
0.0180963
0.0235711
0.0332943
0.0606513
-0.00616074
-0.00665503
-0.00643614
-0.00640031
-0.00628444
-0.00592785
-0.00522185
-0.00412245
-0.00264183
-0.000831622
0.00122638
0.00343799
0.00568061
0.00783829
0.00972487
0.0112783
0.0129051
0.0162084
0.0252119
0.0612061
-0.00820889
-0.0084477
-0.00797741
-0.00786312
-0.00772229
-0.00734881
-0.00660739
-0.00544875
-0.0038943
-0.00201148
9.29182e-05
0.0023006
0.00443548
0.00631732
0.00756359
0.00778572
0.00692951
0.00736391
0.0152826
0.0607013
-0.0108739
-0.010569
-0.00970204
-0.00947263
-0.00929306
-0.00889206
-0.00809887
-0.00685779
-0.00520213
-0.00321576
-0.00103379
0.00120845
0.00327514
0.00493854
0.00558648
0.00447756
0.000737482
-0.0017254
0.00501249
0.063178
-0.0144819
-0.0130306
-0.0115527
-0.011156
-0.0109153
-0.0104704
-0.00960605
-0.0082595
-0.00647939
-0.00436433
-0.00208179
0.000229899
0.00226665
0.00379428
0.00395877
0.00182996
-0.00417383
-0.00889806
-0.00225171
0.0767368
-0.019668
-0.0157435
-0.0133734
-0.012711
-0.0123662
-0.0118583
-0.0109119
-0.00945391
-0.00755022
-0.00530787
-0.00293111
-0.000541586
0.00147358
0.00293215
0.00275673
0.000176306
-0.00658181
-0.0111967
0.00286611
0.109935
-0.0276169
-0.0184006
-0.0147538
-0.0136277
-0.0131495
-0.0126044
-0.0116224
-0.0101089
-0.00814525
-0.00583378
-0.00342006
-0.000995041
0.000958133
0.00234835
0.0019366
-0.000473102
-0.00578292
-0.00418841
0.0289507
0.169896
-0.0392448
-0.0195744
-0.0137243
-0.012572
-0.0123211
-0.0119779
-0.0111875
-0.00982271
-0.0079706
-0.00573452
-0.00339641
-0.00103362
0.00079015
0.00204822
0.00142468
-0.000348717
-0.00239796
0.0117965
0.0724686
0.255588
-0.060298
-0.0118568
-0.00583808
-0.00788137
-0.00904048
-0.00948372
-0.00932456
-0.00844886
-0.006958
-0.00499131
-0.0028556
-0.00066574
0.000988806
0.00207065
0.00126888
0.000175347
0.00098294
0.0270209
0.112849
0.340666
)
;

boundaryField
{
    movingWall
    {
        type            zeroGradient;
    }
    fixedWalls
    {
        type            zeroGradient;
    }
    frontAndBack
    {
        type            empty;
    }
}


// ************************************************************************* //
