/*--------------------------------*- C++ -*----------------------------------*\
  =========                 |
  \\      /  F ield         | OpenFOAM: The Open Source CFD Toolbox
   \\    /   O peration     | Website:  https://openfoam.org
    \\  /    A nd           | Version:  7
     \\/     M anipulation  |
\*---------------------------------------------------------------------------*/
FoamFile
{
    version     2.0;
    format      ascii;
    class       surfaceScalarField;
    location    "0.1";
    object      phi;
}
// * * * * * * * * * * * * * * * * * * * * * * * * * * * * * * * * * * * * * //

dimensions      [0 3 -1 0 0 0 0];

internalField   nonuniform List<scalar> 
760
(
-2.11065e-08
2.11057e-08
-9.31137e-08
7.20072e-08
-1.71266e-07
7.81527e-08
-2.46287e-07
7.50209e-08
-3.17006e-07
7.0719e-08
-3.8303e-07
6.60243e-08
-4.44017e-07
6.09866e-08
-4.99754e-07
5.57371e-08
-5.50165e-07
5.04109e-08
-5.95196e-07
4.50304e-08
-6.34514e-07
3.9318e-08
-6.67011e-07
3.24969e-08
-6.89962e-07
2.29504e-08
-6.97787e-07
7.82521e-09
-6.80722e-07
-1.70648e-08
-6.23963e-07
-5.67583e-08
-5.10375e-07
-1.13589e-07
-3.3139e-07
-1.78985e-07
-1.16857e-07
-2.14532e-07
-1.16857e-07
-8.89154e-08
1.10021e-07
-2.67042e-07
2.50134e-07
-4.58207e-07
2.69318e-07
-6.40156e-07
2.5697e-07
-8.07641e-07
2.38204e-07
-9.59238e-07
2.17621e-07
-1.09447e-06
1.96217e-07
-1.21338e-06
1.74643e-07
-1.31623e-06
1.53261e-07
-1.40311e-06
1.31916e-07
-1.47327e-06
1.09475e-07
-1.52408e-06
8.33114e-08
-1.54961e-06
4.84798e-08
-1.53872e-06
-3.06371e-09
-1.47309e-06
-8.26948e-08
-1.32705e-06
-2.02801e-07
-1.07328e-06
-3.67358e-07
-7.03448e-07
-5.48819e-07
-2.76844e-07
-6.41136e-07
-3.93701e-07
-1.44869e-07
2.54891e-07
-3.96257e-07
5.01522e-07
-6.6136e-07
5.34421e-07
-9.10563e-07
5.06173e-07
-1.13631e-06
4.63954e-07
-1.33676e-06
4.18072e-07
-1.51179e-06
3.7124e-07
-1.66207e-06
3.24923e-07
-1.78851e-06
2.79707e-07
-1.89164e-06
2.35046e-07
-1.97075e-06
1.88578e-07
-2.02274e-06
1.35304e-07
-2.04056e-06
6.62972e-08
-2.01113e-06
-3.24915e-08
-1.91331e-06
-1.80515e-07
-1.7175e-06
-3.9861e-07
-1.39173e-06
-6.93132e-07
-9.24905e-07
-1.01564e-06
-3.82326e-07
-1.18371e-06
-7.76026e-07
-1.82136e-07
4.37027e-07
-4.81558e-07
8.00944e-07
-7.91583e-07
8.44447e-07
-1.07933e-06
7.9392e-07
-1.33661e-06
7.2123e-07
-1.5618e-06
6.43262e-07
-1.75543e-06
5.64877e-07
-1.919e-06
4.8849e-07
-2.05417e-06
4.14874e-07
-2.1621e-06
3.42975e-07
-2.2426e-06
2.69078e-07
-2.29302e-06
1.85723e-07
-2.30668e-06
7.99582e-08
-2.27075e-06
-6.84202e-08
-2.16374e-06
-2.87521e-07
-1.95386e-06
-6.08489e-07
-1.60318e-06
-1.04381e-06
-1.09045e-06
-1.52838e-06
-4.7127e-07
-1.80289e-06
-1.2473e-06
-2.05931e-07
6.42958e-07
-5.36692e-07
1.1317e-06
-8.73732e-07
1.18149e-06
-1.18267e-06
1.10286e-06
-1.45572e-06
9.94282e-07
-1.692e-06
8.79537e-07
-1.89287e-06
7.65752e-07
-2.06068e-06
6.56297e-07
-2.19791e-06
5.52105e-07
-2.30654e-06
4.51603e-07
-2.38728e-06
3.49815e-07
-2.43859e-06
2.37038e-07
-2.45525e-06
9.66218e-08
-2.42605e-06
-9.76225e-08
-2.33048e-06
-3.83094e-07
-2.13482e-06
-8.04146e-07
-1.79258e-06
-1.38606e-06
-1.26444e-06
-2.05651e-06
-5.81136e-07
-2.48619e-06
-1.82843e-06
-2.22936e-07
8.65894e-07
-5.76327e-07
1.4851e-06
-9.31063e-07
1.53622e-06
-1.25212e-06
1.42392e-06
-1.53279e-06
1.27494e-06
-1.77322e-06
1.11997e-06
-1.97577e-06
9.68307e-07
-2.14368e-06
8.24202e-07
-2.2803e-06
6.88726e-07
-2.38857e-06
5.59873e-07
-2.47041e-06
4.31654e-07
-2.52594e-06
2.92577e-07
-2.55225e-06
1.2293e-07
-2.54093e-06
-1.08944e-07
-2.47386e-06
-4.50168e-07
-2.31623e-06
-9.61777e-07
-2.01128e-06
-1.691e-06
-1.49352e-06
-2.57427e-06
-7.46538e-07
-3.23318e-06
-2.57497e-06
-2.38341e-07
1.10424e-06
-6.1149e-07
1.85824e-06
-9.8007e-07
1.9048e-06
-1.3091e-06
1.75295e-06
-1.59345e-06
1.55929e-06
-1.83464e-06
1.36117e-06
-2.03616e-06
1.16982e-06
-2.20217e-06
9.90213e-07
-2.33699e-06
8.23542e-07
-2.44462e-06
6.67509e-07
-2.52845e-06
5.15478e-07
-2.59069e-06
3.54818e-07
-2.63151e-06
1.63758e-07
-2.64671e-06
-9.37526e-08
-2.62267e-06
-4.74203e-07
-2.526e-06
-1.05845e-06
-2.29022e-06
-1.92678e-06
-1.81522e-06
-3.04928e-06
-1.00433e-06
-4.04407e-06
-3.5793e-06
-2.55735e-07
1.35997e-06
-6.49486e-07
2.252e-06
-1.03104e-06
2.28635e-06
-1.36629e-06
2.0882e-06
-1.65232e-06
1.84532e-06
-1.89238e-06
1.60123e-06
-2.0912e-06
1.36864e-06
-2.25398e-06
1.153e-06
-2.38605e-06
9.55606e-07
-2.49257e-06
7.74028e-07
-2.57852e-06
6.01429e-07
-2.64858e-06
4.24878e-07
-2.70678e-06
2.21957e-07
-2.7547e-06
-4.58309e-08
-2.78642e-06
-4.42479e-07
-2.77456e-06
-1.07032e-06
-2.6463e-06
-2.05503e-06
-2.25791e-06
-3.43767e-06
-1.38887e-06
-4.91311e-06
-4.96816e-06
-2.77772e-07
1.63774e-06
-6.95246e-07
2.66947e-06
-1.0902e-06
2.68131e-06
-1.43075e-06
2.42875e-06
-1.71705e-06
2.13162e-06
-1.95443e-06
1.83861e-06
-2.14905e-06
1.56326e-06
-2.30723e-06
1.31118e-06
-2.43531e-06
1.08369e-06
-2.53965e-06
8.78373e-07
-2.6269e-06
6.88679e-07
-2.70437e-06
5.02339e-07
-2.78058e-06
2.98173e-07
-2.86463e-06
3.82127e-08
-2.96211e-06
-3.44991e-07
-3.05802e-06
-9.74411e-07
-3.07844e-06
-2.03462e-06
-2.82492e-06
-3.69119e-06
-1.90625e-06
-5.83178e-06
-6.87441e-06
-3.06912e-07
1.94466e-06
-7.52654e-07
3.11521e-06
-1.16168e-06
3.09034e-06
-1.50647e-06
2.77353e-06
-1.79137e-06
2.41652e-06
-2.02426e-06
2.0715e-06
-2.21286e-06
1.75187e-06
-2.36465e-06
1.46296e-06
-2.48698e-06
1.20602e-06
-2.58735e-06
9.78742e-07
-2.67397e-06
7.75295e-07
-2.75668e-06
5.85056e-07
-2.84884e-06
3.90332e-07
-2.96821e-06
1.57577e-07
-3.13554e-06
-1.7766e-07
-3.35446e-06
-7.55486e-07
-3.55392e-06
-1.83516e-06
-3.46424e-06
-3.78087e-06
-2.49263e-06
-6.80338e-06
-9.36705e-06
-3.46081e-07
2.29074e-06
-8.2552e-07
3.59465e-06
-1.24861e-06
3.51343e-06
-1.59564e-06
3.12056e-06
-1.87662e-06
2.69749e-06
-2.10239e-06
2.29727e-06
-2.28238e-06
1.93186e-06
-2.42518e-06
1.60577e-06
-2.53916e-06
1.31999e-06
-2.63275e-06
1.07234e-06
-2.71546e-06
8.58005e-07
-2.79918e-06
6.68778e-07
-2.9016e-06
4.92748e-07
-3.04898e-06
3.04956e-07
-3.27883e-06
5.21914e-08
-3.61679e-06
-4.17524e-07
-3.99438e-06
-1.45757e-06
-4.04914e-06
-3.72611e-06
-2.99211e-06
-7.86041e-06
-1.23592e-05
-3.99322e-07
2.69006e-06
-9.18167e-07
4.1135e-06
-1.35345e-06
3.94871e-06
-1.69872e-06
3.46583e-06
-1.97134e-06
2.97011e-06
-2.18557e-06
2.51151e-06
-2.3526e-06
2.09889e-06
-2.48221e-06
1.73538e-06
-2.58364e-06
1.42142e-06
-2.66607e-06
1.15476e-06
-2.73976e-06
9.31697e-07
-2.81756e-06
7.46582e-07
-2.91993e-06
5.95113e-07
-3.07895e-06
4.63982e-07
-3.34665e-06
3.19881e-07
-3.76848e-06
4.31248e-09
-4.27829e-06
-9.47757e-07
-4.40979e-06
-3.59462e-06
-3.22878e-06
-9.04142e-06
-1.55879e-05
-4.7259e-07
3.16265e-06
-1.03553e-06
4.67644e-06
-1.47709e-06
4.39027e-06
-1.81221e-06
3.80095e-06
-2.0677e-06
3.22561e-06
-2.26175e-06
2.70556e-06
-2.40751e-06
2.24464e-06
-2.51608e-06
1.84394e-06
-2.59761e-06
1.50295e-06
-2.66161e-06
1.21877e-06
-2.71843e-06
9.88519e-07
-2.78011e-06
8.08266e-07
-2.86701e-06
6.8201e-07
-3.01108e-06
6.08054e-07
-3.27215e-06
5.80949e-07
-3.7071e-06
4.39258e-07
-4.26365e-06
-3.91204e-07
-4.40778e-06
-3.45049e-06
-3.13402e-06
-1.03152e-05
-1.8722e-05
-5.74852e-07
3.7375e-06
-1.18218e-06
5.28377e-06
-1.61482e-06
4.8229e-06
-1.92128e-06
4.10741e-06
-2.14061e-06
3.44494e-06
-2.29596e-06
2.86091e-06
-2.40323e-06
2.35192e-06
-2.47527e-06
1.91598e-06
-2.52319e-06
1.55087e-06
-2.55638e-06
1.25195e-06
-2.58437e-06
1.01651e-06
-2.61613e-06
8.40025e-07
-2.6683e-06
7.3418e-07
-2.76411e-06
7.03864e-07
-2.9584e-06
7.75236e-07
-3.31181e-06
7.92675e-07
-3.80683e-06
1.03814e-07
-3.95539e-06
-3.30194e-06
-2.74733e-06
-1.15232e-05
-2.14693e-05
-7.19756e-07
4.45726e-06
-1.35778e-06
5.92179e-06
-1.74404e-06
5.20916e-06
-1.97907e-06
4.34244e-06
-2.11967e-06
3.58554e-06
-2.1967e-06
2.93795e-06
-2.23052e-06
2.38573e-06
-2.23631e-06
1.92177e-06
-2.22598e-06
1.54054e-06
-2.20783e-06
1.2338e-06
-2.18955e-06
9.98234e-07
-2.17459e-06
8.25067e-07
-2.17297e-06
7.32561e-07
-2.19003e-06
7.20927e-07
-2.26451e-06
8.49713e-07
-2.43479e-06
9.62953e-07
-2.76367e-06
4.32698e-07
-2.94338e-06
-3.12223e-06
-2.06364e-06
-1.2403e-05
-2.35329e-05
-9.27702e-07
5.38496e-06
-1.54059e-06
6.53468e-06
-1.78768e-06
5.45625e-06
-1.8534e-06
4.40816e-06
-1.82552e-06
3.55766e-06
-1.74718e-06
2.85961e-06
-1.64437e-06
2.28292e-06
-1.53377e-06
1.81116e-06
-1.42633e-06
1.43311e-06
-1.32693e-06
1.1344e-06
-1.23974e-06
9.11044e-07
-1.16066e-06
7.45988e-07
-1.09232e-06
6.64226e-07
-1.01864e-06
6.47241e-07
-9.53916e-07
7.84991e-07
-8.94399e-07
9.03437e-07
-9.79695e-07
5.17993e-07
-1.27016e-06
-2.83176e-06
-7.73729e-07
-1.28994e-05
-2.43066e-05
-1.21651e-06
6.60147e-06
-1.62602e-06
6.9442e-06
-1.5074e-06
5.33762e-06
-1.2013e-06
4.10207e-06
-8.46063e-07
3.20242e-06
-4.91707e-07
2.50525e-06
-1.62882e-07
1.9541e-06
1.28901e-07
1.51938e-06
3.7946e-07
1.18255e-06
5.92227e-07
9.21629e-07
7.70113e-07
7.33157e-07
9.25482e-07
5.9062e-07
1.06307e-06
5.26635e-07
1.21284e-06
4.97472e-07
1.38429e-06
6.13544e-07
1.60709e-06
6.80637e-07
1.75162e-06
3.7346e-07
1.24582e-06
-2.32595e-06
1.04607e-06
-1.26997e-05
-2.32606e-05
-1.515e-06
8.11646e-06
-1.17998e-06
6.60917e-06
-1.93148e-07
4.35079e-06
7.9083e-07
3.11809e-06
1.6542e-06
2.33905e-06
2.39555e-06
1.7639e-06
3.01648e-06
1.33316e-06
3.52625e-06
1.00961e-06
3.93917e-06
7.6963e-07
4.27281e-06
5.87985e-07
4.5425e-06
4.63467e-07
4.76742e-06
3.65706e-07
4.96286e-06
3.31189e-07
5.15609e-06
3.04251e-07
5.37699e-06
3.92639e-07
5.64541e-06
4.12221e-07
5.91324e-06
1.05626e-07
5.4483e-06
-1.86102e-06
3.24151e-06
-1.04929e-05
-2.00191e-05
-9.95441e-07
9.1119e-06
1.77962e-06
3.83411e-06
4.09612e-06
2.0343e-06
5.79797e-06
1.41624e-06
7.11975e-06
1.01727e-06
8.15993e-06
7.23727e-07
8.97256e-06
5.2053e-07
9.60334e-06
3.78835e-07
1.00928e-05
2.80178e-07
1.04726e-05
2.08169e-07
1.07733e-05
1.62742e-07
1.10131e-05
1.25962e-07
1.12248e-05
1.19425e-07
1.14171e-05
1.11993e-07
1.16513e-05
1.58433e-07
1.18955e-05
1.68043e-07
1.20418e-05
-4.07225e-08
1.12106e-05
-1.02984e-06
6.75665e-06
-6.03887e-06
-1.32624e-05
9.1119e-06
1.2946e-05
1.49803e-05
1.63965e-05
1.74138e-05
1.81375e-05
1.86581e-05
1.90369e-05
1.93171e-05
1.95253e-05
1.9688e-05
1.9814e-05
1.99334e-05
2.00454e-05
2.02038e-05
2.03719e-05
2.03311e-05
1.93013e-05
1.32624e-05
)
;

boundaryField
{
    movingWall
    {
        type            calculated;
        value           uniform 0;
    }
    fixedWalls
    {
        type            calculated;
        value           uniform 0;
    }
    frontAndBack
    {
        type            empty;
        value           nonuniform 0();
    }
}


// ************************************************************************* //
