/*--------------------------------*- C++ -*----------------------------------*\
  =========                 |
  \\      /  F ield         | OpenFOAM: The Open Source CFD Toolbox
   \\    /   O peration     | Website:  https://openfoam.org
    \\  /    A nd           | Version:  7
     \\/     M anipulation  |
\*---------------------------------------------------------------------------*/
FoamFile
{
    version     2.0;
    format      ascii;
    class       volVectorField;
    location    "0.1";
    object      U;
}
// * * * * * * * * * * * * * * * * * * * * * * * * * * * * * * * * * * * * * //

dimensions      [0 1 -1 0 0 0 0];

internalField   nonuniform List<vector> 
400
(
(-0.000179331 4.61979e-05 0)
(-0.00202171 0.000511512 0)
(-0.00530337 0.000569043 0)
(-0.00840198 0.000553397 0)
(-0.0113229 0.000533794 0)
(-0.0140606 0.000512262 0)
(-0.0166013 0.000487013 0)
(-0.0189347 0.000458536 0)
(-0.0210568 0.000428197 0)
(-0.0229664 0.000396892 0)
(-0.0246588 0.000363295 0)
(-0.0261091 0.000321929 0)
(-0.027246 0.000259797 0)
(-0.0279096 0.000152873 0)
(-0.0277956 -3.9671e-05 0)
(-0.0264036 -0.000365562 0)
(-0.0230601 -0.000854254 0)
(-0.0171254 -0.00144154 0)
(-0.00871018 -0.0017863 0)
(-0.00197224 -0.00091027 0)
(-0.00129088 0.00104296 0)
(-0.00660364 0.00282859 0)
(-0.0145675 0.00307194 0)
(-0.022122 0.00294931 0)
(-0.0291271 0.00276521 0)
(-0.0355137 0.0025619 0)
(-0.0412476 0.0023458 0)
(-0.046324 0.00212331 0)
(-0.0507542 0.00189948 0)
(-0.0545493 0.00167437 0)
(-0.0577031 0.00143645 0)
(-0.0601567 0.00115557 0)
(-0.0617501 0.000771375 0)
(-0.0621532 0.000182246 0)
(-0.0607792 -0.00076318 0)
(-0.0567244 -0.00223321 0)
(-0.0488535 -0.00429626 0)
(-0.0361896 -0.00662287 0)
(-0.0191326 -0.00784741 0)
(-0.00480056 -0.00459382 0)
(-0.00226043 0.00343828 0)
(-0.010177 0.00721294 0)
(-0.0212802 0.00773782 0)
(-0.031685 0.00736498 0)
(-0.041206 0.00679528 0)
(-0.0497324 0.00617079 0)
(-0.0572323 0.00552592 0)
(-0.0637242 0.00488109 0)
(-0.0692477 0.00424607 0)
(-0.0738367 0.00361481 0)
(-0.0774963 0.00295394 0)
(-0.0801612 0.00218926 0)
(-0.0816414 0.00118472 0)
(-0.0815471 -0.000276486 0)
(-0.0791965 -0.00249685 0)
(-0.0735473 -0.00580088 0)
(-0.0632803 -0.010284 0)
(-0.0472152 -0.0151928 0)
(-0.0256777 -0.0176933 0)
(-0.00677912 -0.0112547 0)
(-0.0029161 0.00679903 0)
(-0.01257 0.01285 0)
(-0.0256584 0.0136273 0)
(-0.0377396 0.0128672 0)
(-0.0486604 0.0117464 0)
(-0.0583052 0.0105335 0)
(-0.0666629 0.00930327 0)
(-0.073784 0.00809431 0)
(-0.0797402 0.00692042 0)
(-0.084594 0.00576599 0)
(-0.088374 0.00457049 0)
(-0.0910337 0.00320936 0)
(-0.0923999 0.00146391 0)
(-0.0920975 -0.00100693 0)
(-0.0894482 -0.00467376 0)
(-0.0833682 -0.0100443 0)
(-0.0723816 -0.0172858 0)
(-0.0549633 -0.0252415 0)
(-0.030994 -0.029503 0)
(-0.00858294 -0.0198342 0)
(-0.00333075 0.0107229 0)
(-0.0141223 0.0192174 0)
(-0.0284709 0.0201682 0)
(-0.0415107 0.0189014 0)
(-0.0531629 0.0171103 0)
(-0.0633351 0.0152005 0)
(-0.0720492 0.0132916 0)
(-0.0793905 0.0114418 0)
(-0.0854645 0.00966818 0)
(-0.0903657 0.00794452 0)
(-0.094156 0.00618327 0)
(-0.0968289 0.00421166 0)
(-0.0982627 0.00173242 0)
(-0.0981473 -0.00171811 0)
(-0.0958681 -0.0067897 0)
(-0.0903441 -0.0142206 0)
(-0.0799081 -0.0243554 0)
(-0.062503 -0.0357744 0)
(-0.0372022 -0.0425585 0)
(-0.0109535 -0.0302267 0)
(-0.00362685 0.0150254 0)
(-0.0152455 0.0260816 0)
(-0.0304777 0.0271126 0)
(-0.0441008 0.0252286 0)
(-0.0561351 0.0226728 0)
(-0.0665306 0.0199894 0)
(-0.0753506 0.0173435 0)
(-0.0827178 0.0148118 0)
(-0.0887724 0.0124145 0)
(-0.0936443 0.0101155 0)
(-0.0974374 0.00780386 0)
(-0.100201 0.00526577 0)
(-0.101893 0.00213518 0)
(-0.102309 -0.00216758 0)
(-0.100955 -0.00848331 0)
(-0.0968092 -0.0178465 0)
(-0.0880076 -0.0309381 0)
(-0.0718172 -0.0463216 0)
(-0.0460976 -0.0568149 0)
(-0.0146696 -0.0431897 0)
(-0.00390432 0.0196362 0)
(-0.0162598 0.0333497 0)
(-0.0322347 0.0343548 0)
(-0.0462747 0.0317418 0)
(-0.0585254 0.0283356 0)
(-0.0689957 0.0248175 0)
(-0.0777984 0.0213941 0)
(-0.0850966 0.0181585 0)
(-0.0910673 0.0151335 0)
(-0.0958788 0.0122757 0)
(-0.0996835 0.0094572 0)
(-0.102599 0.00643398 0)
(-0.104687 0.00278709 0)
(-0.10589 -0.00216431 0)
(-0.105907 -0.00945558 0)
(-0.103877 -0.0204868 0)
(-0.0978182 -0.0364765 0)
(-0.0842764 -0.0563611 0)
(-0.059399 -0.0723151 0)
(-0.0206053 -0.0601633 0)
(-0.00423484 0.0245648 0)
(-0.0173849 0.0410109 0)
(-0.034101 0.0418577 0)
(-0.0484971 0.0383915 0)
(-0.0608844 0.0340483 0)
(-0.0713491 0.0296391 0)
(-0.0800621 0.0254057 0)
(-0.0872307 0.0214533 0)
(-0.093071 0.0178075 0)
(-0.0977923 0.0144203 0)
(-0.101599 0.0111552 0)
(-0.104688 0.0077529 0)
(-0.107239 0.00376524 0)
(-0.10939 -0.00156125 0)
(-0.111126 -0.00943715 0)
(-0.11191 -0.0216791 0)
(-0.109833 -0.0402726 0)
(-0.100803 -0.0651164 0)
(-0.0786215 -0.0889556 0)
(-0.029494 -0.0832774 0)
(-0.00467537 0.0298793 0)
(-0.0187781 0.0491087 0)
(-0.0363079 0.0496217 0)
(-0.0510382 0.0451555 0)
(-0.0635091 0.0397803 0)
(-0.0739056 0.0344227 0)
(-0.0824666 0.0293489 0)
(-0.0894475 0.0246709 0)
(-0.0951048 0.0204158 0)
(-0.0996895 0.0165346 0)
(-0.10346 0.0128915 0)
(-0.106692 0.00923011 0)
(-0.109701 0.00510595 0)
(-0.112856 -0.000258987 0)
(-0.116534 -0.00819374 0)
(-0.120743 -0.0209407 0)
(-0.123923 -0.0414977 0)
(-0.121538 -0.0715893 0)
(-0.104203 -0.106478 0)
(-0.0408706 -0.115221 0)
(-0.00528437 0.0356977 0)
(-0.0205763 0.0577225 0)
(-0.0390232 0.0576616 0)
(-0.0540614 0.0520174 0)
(-0.0665543 0.0455034 0)
(-0.0768102 0.0391369 0)
(-0.0851453 0.0331922 0)
(-0.0918657 0.0277808 0)
(-0.097269 0.0229294 0)
(-0.101646 0.0185908 0)
(-0.105306 0.0146393 0)
(-0.108597 0.0108415 0)
(-0.111973 0.00679828 0)
(-0.116049 0.0017765 0)
(-0.12169 -0.0055673 0)
(-0.129657 -0.0178557 0)
(-0.139042 -0.0393724 0)
(-0.145018 -0.0749284 0)
(-0.133999 -0.124877 0)
(-0.0510993 -0.158596 0)
(-0.00613748 0.0421902 0)
(-0.0229297 0.0669547 0)
(-0.0423952 0.065988 0)
(-0.0576744 0.0589501 0)
(-0.0700907 0.0511788 0)
(-0.0800998 0.0437401 0)
(-0.088103 0.0368939 0)
(-0.094459 0.0307414 0)
(-0.0995049 0.0253063 0)
(-0.103568 0.0205445 0)
(-0.106998 0.0163482 0)
(-0.110202 0.0125255 0)
(-0.113744 0.00876985 0)
(-0.11847 0.00447682 0)
(-0.12575 -0.0015636 0)
(-0.137218 -0.0122657 0)
(-0.152813 -0.0335514 0)
(-0.16741 -0.0751187 0)
(-0.162464 -0.14504 0)
(-0.0527395 -0.214133 0)
(-0.0073446 0.0495961 0)
(-0.0260306 0.0769198 0)
(-0.0465718 0.074588 0)
(-0.0619359 0.0658992 0)
(-0.0740978 0.0567423 0)
(-0.0836793 0.048167 0)
(-0.091174 0.0403892 0)
(-0.096994 0.0334889 0)
(-0.101516 0.0274822 0)
(-0.105096 0.0223264 0)
(-0.108113 0.0179367 0)
(-0.110999 0.0141732 0)
(-0.114377 0.0108663 0)
(-0.11923 0.00761885 0)
(-0.127329 0.00352998 0)
(-0.141098 -0.00451733 0)
(-0.161412 -0.0245408 0)
(-0.182807 -0.0733153 0)
(-0.182442 -0.168254 0)
(-0.0393031 -0.278448 0)
(-0.00907204 0.0582556 0)
(-0.0301385 0.0877287 0)
(-0.0516877 0.0833945 0)
(-0.0667953 0.0727526 0)
(-0.07835 0.0620742 0)
(-0.0871498 0.0522987 0)
(-0.0937933 0.0435618 0)
(-0.0987531 0.0359106 0)
(-0.102448 0.0293476 0)
(-0.105258 0.0238246 0)
(-0.107569 0.0192781 0)
(-0.109793 0.0156155 0)
(-0.112531 0.012832 0)
(-0.116714 0.0107768 0)
(-0.124255 0.00903046 0)
(-0.138026 0.00438059 0)
(-0.159984 -0.0137327 0)
(-0.184684 -0.0710291 0)
(-0.188782 -0.194293 0)
(-0.0125868 -0.345246 0)
(-0.0115744 0.0686639 0)
(-0.0356004 0.0994453 0)
(-0.0577761 0.0922201 0)
(-0.0718693 0.0792687 0)
(-0.0820488 0.0669228 0)
(-0.0893022 0.055885 0)
(-0.0943721 0.0461725 0)
(-0.0978146 0.0377841 0)
(-0.100101 0.0306987 0)
(-0.101626 0.0248464 0)
(-0.102759 0.0201755 0)
(-0.103827 0.0166097 0)
(-0.105317 0.0143119 0)
(-0.107847 0.013334 0)
(-0.113066 0.0138638 0)
(-0.12373 0.0126597 0)
(-0.143206 -0.00294575 0)
(-0.166852 -0.0689991 0)
(-0.179191 -0.220945 0)
(0.0193986 -0.409398 0)
(-0.0152421 0.0815702 0)
(-0.0428415 0.111968 0)
(-0.0644507 0.100603 0)
(-0.0757757 0.0848964 0)
(-0.0828325 0.0707173 0)
(-0.0868668 0.0583743 0)
(-0.0888588 0.0477158 0)
(-0.089489 0.0386655 0)
(-0.0892877 0.0311551 0)
(-0.0886334 0.0250623 0)
(-0.0878501 0.0203307 0)
(-0.0870924 0.0168395 0)
(-0.0866818 0.0148984 0)
(-0.0866207 0.0146 0)
(-0.0880378 0.0167968 0)
(-0.0924627 0.0182237 0)
(-0.105385 0.00555875 0)
(-0.12292 -0.0670642 0)
(-0.150864 -0.246221 0)
(0.053505 -0.4646 0)
(-0.0206676 0.098134 0)
(-0.052224 0.124725 0)
(-0.0698408 0.107433 0)
(-0.0742703 0.0883468 0)
(-0.0743742 0.0721937 0)
(-0.0718222 0.0586276 0)
(-0.0679313 0.0472224 0)
(-0.0634985 0.0377602 0)
(-0.0590557 0.0300818 0)
(-0.0548615 0.0239655 0)
(-0.0511468 0.0193364 0)
(-0.0477434 0.0159494 0)
(-0.0449094 0.0142399 0)
(-0.0416822 0.0140805 0)
(-0.0390292 0.0169611 0)
(-0.0357023 0.0194853 0)
(-0.0402317 0.00975788 0)
(-0.0465534 -0.0640287 0)
(-0.0969751 -0.267711 0)
(0.096045 -0.497514 0)
(-0.0286638 0.119855 0)
(-0.0632388 0.135877 0)
(-0.0668832 0.109758 0)
(-0.0553194 0.0866671 0)
(-0.0412756 0.0688522 0)
(-0.0266068 0.0546343 0)
(-0.0127008 0.0431403 0)
(-0.000186055 0.0339029 0)
(0.0106458 0.0266195 0)
(0.0199279 0.0209265 0)
(0.0275767 0.0167382 0)
(0.0343979 0.0136294 0)
(0.0397841 0.0121646 0)
(0.0463028 0.0117671 0)
(0.0514072 0.014454 0)
(0.0613521 0.016503 0)
(0.0616489 0.00957575 0)
(0.0664194 -0.0571069 0)
(-0.00480769 -0.272081 0)
(0.158886 -0.493637 0)
(-0.0394771 0.146042 0)
(-0.0681554 0.138204 0)
(-0.0299368 0.0988254 0)
(0.012663 0.0740264 0)
(0.0498574 0.0568151 0)
(0.0821952 0.0437195 0)
(0.109471 0.033649 0)
(0.132014 0.0258816 0)
(0.150241 0.0199706 0)
(0.165153 0.0154376 0)
(0.176765 0.0122259 0)
(0.18711 0.00976034 0)
(0.194325 0.00873476 0)
(0.204003 0.00812192 0)
(0.208655 0.0102457 0)
(0.223126 0.0111422 0)
(0.219267 0.00608816 0)
(0.229846 -0.0392909 0)
(0.13808 -0.232153 0)
(0.252272 -0.43806 0)
(-0.0671056 0.190559 0)
(0.0107026 0.109914 0)
(0.121754 0.0653064 0)
(0.201528 0.0466587 0)
(0.261251 0.0346158 0)
(0.308075 0.0255551 0)
(0.344713 0.0189311 0)
(0.373267 0.0140998 0)
(0.395158 0.0106106 0)
(0.412563 0.00800293 0)
(0.425319 0.00627817 0)
(0.437117 0.00487681 0)
(0.443895 0.00447304 0)
(0.455549 0.00399431 0)
(0.457092 0.00536343 0)
(0.474928 0.00599619 0)
(0.459843 0.000974742 0)
(0.470297 -0.0202235 0)
(0.346203 -0.148081 0)
(0.38835 -0.311477 0)
(0.348391 0.127635 0)
(0.447818 0.069426 0)
(0.558529 0.0363561 0)
(0.63208 0.022006 0)
(0.679887 0.0143871 0)
(0.713416 0.0095804 0)
(0.737574 0.00647327 0)
(0.75521 0.00443635 0)
(0.76789 0.00311367 0)
(0.777729 0.00219691 0)
(0.784379 0.00166244 0)
(0.791125 0.00122037 0)
(0.79399 0.00112578 0)
(0.801791 0.00102438 0)
(0.800647 0.00128794 0)
(0.814265 0.00193751 0)
(0.796482 -0.000439303 0)
(0.800533 -0.00546587 0)
(0.672961 -0.0420422 0)
(0.618938 -0.10792 0)
)
;

boundaryField
{
    movingWall
    {
        type            fixedValue;
        value           uniform (1 0 0);
    }
    fixedWalls
    {
        type            noSlip;
    }
    frontAndBack
    {
        type            empty;
    }
}


// ************************************************************************* //
