/*--------------------------------*- C++ -*----------------------------------*\
  =========                 |
  \\      /  F ield         | OpenFOAM: The Open Source CFD Toolbox
   \\    /   O peration     | Website:  https://openfoam.org
    \\  /    A nd           | Version:  7
     \\/     M anipulation  |
\*---------------------------------------------------------------------------*/
FoamFile
{
    version     2.0;
    format      ascii;
    class       volScalarField;
    location    "0.3";
    object      p;
}
// * * * * * * * * * * * * * * * * * * * * * * * * * * * * * * * * * * * * * //

dimensions      [0 2 -2 0 0 0 0];

internalField   nonuniform List<scalar> 
400
(
-6.16109e-09
-1.95843e-06
-2.48446e-06
-1.54798e-06
8.33426e-07
4.59586e-06
9.58791e-06
1.55944e-05
2.23602e-05
2.96023e-05
3.70185e-05
4.42976e-05
5.11301e-05
5.72198e-05
6.22946e-05
6.6122e-05
6.85376e-05
6.94735e-05
6.89199e-05
6.69238e-05
2.99227e-06
3.23354e-07
-3.873e-07
4.99866e-07
2.74322e-06
6.26459e-06
1.09409e-05
1.65805e-05
2.2947e-05
2.97733e-05
3.67702e-05
4.3639e-05
5.00817e-05
5.5815e-05
6.05821e-05
6.41709e-05
6.64431e-05
6.73167e-05
6.65596e-05
6.38256e-05
-1.39531e-06
-4.94495e-06
-5.9914e-06
-5.05614e-06
-2.49834e-06
1.57036e-06
7.00074e-06
1.35668e-05
2.09922e-05
2.89651e-05
3.71484e-05
4.51885e-05
5.27338e-05
5.94464e-05
6.50172e-05
6.91874e-05
7.1784e-05
7.26897e-05
7.1561e-05
6.78996e-05
-1.22435e-05
-1.68329e-05
-1.81678e-05
-1.69321e-05
-1.35974e-05
-8.31153e-06
-1.26616e-06
7.25159e-06
1.68907e-05
2.72534e-05
3.79059e-05
4.83907e-05
5.82475e-05
6.70307e-05
7.43295e-05
7.97972e-05
8.31998e-05
8.43797e-05
8.28919e-05
7.80909e-05
-3.14621e-05
-3.75596e-05
-3.92233e-05
-3.73775e-05
-3.26638e-05
-2.52841e-05
-1.54934e-05
-3.67198e-06
9.71241e-06
2.41248e-05
3.89758e-05
5.36348e-05
6.74587e-05
7.98188e-05
9.01293e-05
9.78923e-05
0.000102769
0.000104535
0.000102597
9.60968e-05
-6.22532e-05
-7.05252e-05
-7.25871e-05
-6.9727e-05
-6.28432e-05
-5.22142e-05
-3.81801e-05
-2.12491e-05
-2.05279e-06
1.86757e-05
4.01156e-05
6.13714e-05
8.15089e-05
9.96029e-05
0.000114779
0.000126285
0.000133603
0.000136405
0.00013387
0.000124835
-0.000109598
-0.000120932
-0.000123483
-0.000119075
-0.000108981
-9.35775e-05
-7.3305e-05
-4.88279e-05
-2.09872e-05
9.21671e-06
4.06381e-05
7.19969e-05
0.000101899
0.000128947
0.000151789
0.000169245
0.000180489
0.000185015
0.000181682
0.000168903
-0.000180927
-0.0001965
-0.00019967
-0.000193042
-0.000178415
-0.000156278
-0.000127161
-9.18863e-05
-5.15316e-05
-7.42798e-06
3.88453e-05
8.54833e-05
0.000130367
0.000171332
0.000206232
0.000233142
0.000250684
0.000258044
0.000253634
0.000235311
-0.000287049
-0.00030841
-0.000312426
-0.00030282
-0.000282114
-0.000250894
-0.000209708
-0.000159469
-0.000101452
-3.73456e-05
3.0727e-05
0.000100363
0.000168248
0.000230981
0.00028505
0.000327184
0.000354959
0.000366986
0.000361075
0.000334411
-0.000443303
-0.000472482
-0.000477809
-0.000464596
-0.000436334
-0.000393616
-0.000336813
-0.000266707
-0.000184572
-9.2389e-05
7.06074e-06
0.000111259
0.000214617
0.000311809
0.000396928
0.000464161
0.000508968
0.000528779
0.000520592
0.000480979
-0.000670862
-0.000710495
-0.000718153
-0.000701377
-0.000664912
-0.000609141
-0.000533831
-0.000439104
-0.000325669
-0.000195199
-5.05492e-05
0.000103792
0.000261578
0.00041398
0.000550643
0.000660659
0.000734918
0.000768068
0.000755946
0.000695127
-0.000997796
-0.00105131
-0.00106348
-0.00104497
-0.0010021
-0.000934675
-0.000841096
-0.00071986
-0.000569973
-0.000391568
-0.000186671
4.0089e-05
0.000281657
0.000523849
0.000748653
0.000935037
0.00106334
0.00112088
0.00110103
0.00100238
-0.00145914
-0.00153097
-0.001552
-0.00153725
-0.0014951
-0.00142425
-0.00132061
-0.00117943
-0.000995808
-0.000765735
-0.000488008
-0.000165735
0.000200581
0.000587692
0.000966092
0.00129514
0.00153022
0.00163756
0.0016021
0.00142799
-0.00209477
-0.00219062
-0.00222819
-0.00222871
-0.00220372
-0.00215063
-0.0020618
-0.00192717
-0.00173467
-0.00147117
-0.00112491
-0.000688899
-0.000166864
0.000435877
0.00107758
0.00168205
0.00214601
0.00237344
0.00231328
0.00197198
-0.00294417
-0.00307083
-0.0031371
-0.00317392
-0.00319724
-0.00320388
-0.00318332
-0.00312052
-0.00299536
-0.00278178
-0.00244826
-0.00196478
-0.00130585
-0.000443632
0.000618741
0.00176598
0.00278203
0.00338488
0.00334881
0.00261875
-0.00404317
-0.00421139
-0.00430599
-0.00438372
-0.0044816
-0.00460366
-0.00473941
-0.00487142
-0.00497544
-0.00501843
-0.00495284
-0.00470585
-0.00418063
-0.00326938
-0.00185951
0.000109127
0.00235542
0.00414971
0.00460242
0.0033979
-0.00533338
-0.00554162
-0.00572667
-0.00593083
-0.00619683
-0.00653162
-0.00693942
-0.00742585
-0.0079944
-0.00864613
-0.00937986
-0.010173
-0.0109052
-0.0112178
-0.0104978
-0.00824938
-0.00427981
0.000335682
0.00332934
0.00356303
-0.00807386
-0.00787789
-0.0075171
-0.00740448
-0.00754361
-0.00795205
-0.00863412
-0.00959706
-0.0108737
-0.0125349
-0.0146902
-0.0174566
-0.0207936
-0.0241293
-0.0260604
-0.0253631
-0.020464
-0.011588
-0.00241703
0.00333605
-0.00521672
-0.00686391
-0.00816682
-0.0090559
-0.00976129
-0.0105015
-0.0114276
-0.0126768
-0.0144104
-0.016833
-0.0201584
-0.024597
-0.0300017
-0.0356362
-0.0397415
-0.0378017
-0.0277674
-0.00923272
0.0135817
0.035684
-0.0364761
-0.0171242
-0.0107314
-0.00884022
-0.00807844
-0.00790394
-0.0083462
-0.00945554
-0.0112774
-0.0138516
-0.0171839
-0.0209867
-0.0245674
-0.0262777
-0.0237409
-0.0131175
0.0108965
0.051023
0.102277
0.153311
)
;

boundaryField
{
    movingWall
    {
        type            zeroGradient;
    }
    fixedWalls
    {
        type            zeroGradient;
    }
    frontAndBack
    {
        type            empty;
    }
}


// ************************************************************************* //
