/*--------------------------------*- C++ -*----------------------------------*\
  =========                 |
  \\      /  F ield         | OpenFOAM: The Open Source CFD Toolbox
   \\    /   O peration     | Website:  https://openfoam.org
    \\  /    A nd           | Version:  7
     \\/     M anipulation  |
\*---------------------------------------------------------------------------*/
FoamFile
{
    version     2.0;
    format      ascii;
    class       surfaceScalarField;
    location    "0.3";
    object      phi;
}
// * * * * * * * * * * * * * * * * * * * * * * * * * * * * * * * * * * * * * //

dimensions      [0 3 -1 0 0 0 0];

internalField   nonuniform List<scalar> 
760
(
-1.78005e-09
1.78073e-09
-6.81603e-09
5.03592e-09
-1.36489e-08
6.83277e-09
-2.09763e-08
7.32725e-09
-2.7972e-08
6.99557e-09
-3.4155e-08
6.18292e-09
-3.92325e-08
5.07749e-09
-4.30103e-08
3.77778e-09
-4.53555e-08
2.3452e-09
-4.61857e-08
8.301e-10
-4.54672e-08
-7.18533e-10
-4.32167e-08
-2.25055e-09
-3.95025e-08
-3.71438e-09
-3.44479e-08
-5.05469e-09
-2.8245e-08
-6.20311e-09
-2.11925e-08
-7.05268e-09
-1.37863e-08
-7.40627e-09
-6.87537e-09
-6.91095e-09
-1.78794e-09
-5.08743e-09
-1.78795e-09
-4.16187e-09
5.94258e-09
-1.34173e-08
1.42913e-08
-2.51008e-08
1.85162e-08
-3.73259e-08
1.95524e-08
-4.89063e-08
1.8576e-08
-5.91214e-08
1.63982e-08
-6.75092e-08
1.34655e-08
-7.37511e-08
1.002e-08
-7.7626e-08
6.22025e-09
-7.89957e-08
2.20003e-09
-7.78051e-08
-1.90898e-09
-7.40822e-08
-5.9733e-09
-6.79422e-08
-9.85441e-09
-5.95913e-08
-1.34056e-08
-4.93442e-08
-1.64501e-08
-3.76727e-08
-1.8724e-08
-2.53214e-08
-1.97573e-08
-1.35129e-08
-1.87192e-08
-4.17432e-09
-1.44258e-08
-5.96236e-09
-5.31379e-09
1.12562e-08
-1.71829e-08
2.61602e-08
-3.21012e-08
3.34343e-08
-4.76379e-08
3.50889e-08
-6.2316e-08
3.32541e-08
-7.52524e-08
2.93344e-08
-8.58799e-08
2.40928e-08
-9.38035e-08
1.79436e-08
-9.87445e-08
1.1161e-08
-1.00525e-07
3.9806e-09
-9.90675e-08
-3.36685e-09
-9.44012e-08
-1.06398e-08
-8.66624e-08
-1.75934e-08
-7.61031e-08
-2.3965e-08
-6.31111e-08
-2.94423e-08
-4.82702e-08
-3.35649e-08
-3.25064e-08
-3.55212e-08
-1.7361e-08
-3.38646e-08
-5.33936e-09
-2.64475e-08
-1.13017e-08
-6.83793e-09
1.80941e-08
-2.21331e-08
4.14554e-08
-4.13468e-08
5.2648e-08
-6.13472e-08
5.50893e-08
-8.0247e-08
5.21538e-08
-9.69245e-08
4.6012e-08
-1.10659e-07
3.78273e-08
-1.20943e-07
2.82272e-08
-1.2741e-07
1.76283e-08
-1.2982e-07
6.3906e-09
-1.28056e-07
-5.13047e-09
-1.2214e-07
-1.65565e-08
-1.1223e-07
-2.75033e-08
-9.86383e-08
-3.75562e-08
-8.18584e-08
-4.62222e-08
-6.26424e-08
-5.2781e-08
-4.21932e-08
-5.59705e-08
-2.25233e-08
-5.35346e-08
-6.90972e-09
-4.20612e-08
-1.82113e-08
-9.19858e-09
2.72926e-08
-2.96852e-08
6.19419e-08
-5.53731e-08
7.83358e-08
-8.21023e-08
8.18185e-08
-1.07384e-07
7.74356e-08
-1.29745e-07
6.83721e-08
-1.4823e-07
5.63122e-08
-1.62157e-07
4.21544e-08
-1.71022e-07
2.64933e-08
-1.74478e-07
9.84662e-09
-1.72337e-07
-7.27146e-09
-1.64594e-07
-2.42998e-08
-1.51433e-07
-4.06642e-08
-1.33251e-07
-5.57385e-08
-1.10698e-07
-6.87754e-08
-8.47875e-08
-7.86909e-08
-5.71551e-08
-8.36029e-08
-3.05361e-08
-8.01536e-08
-9.38008e-09
-6.32172e-08
-2.75915e-08
-1.27089e-08
4.00016e-08
-4.08349e-08
9.0068e-08
-7.60091e-08
1.1351e-07
-1.12592e-07
1.18402e-07
-1.47243e-07
1.12086e-07
-1.77988e-07
9.91166e-08
-2.03539e-07
8.18631e-08
-2.22954e-07
6.15698e-08
-2.35514e-07
3.90533e-08
-2.40698e-07
1.50303e-08
-2.38187e-07
-9.78251e-09
-2.27907e-07
-3.45791e-08
-2.10059e-07
-5.8513e-08
-1.85141e-07
-8.06561e-08
-1.54029e-07
-9.98877e-08
-1.18127e-07
-1.14593e-07
-7.97242e-08
-1.22005e-07
-4.26536e-08
-1.17224e-07
-1.31341e-08
-9.27365e-08
-4.07258e-08
-1.77672e-08
5.77688e-08
-5.68137e-08
1.29115e-07
-1.05507e-07
1.62204e-07
-1.56139e-07
1.69033e-07
-2.04196e-07
1.60143e-07
-2.47025e-07
1.41945e-07
-2.82875e-07
1.17713e-07
-3.10429e-07
8.91243e-08
-3.28639e-07
5.72631e-08
-3.36698e-07
2.30898e-08
-3.34055e-07
-1.24262e-08
-3.20465e-07
-4.81683e-08
-2.961e-07
-8.28777e-08
-2.61566e-07
-1.15191e-07
-2.18035e-07
-1.43419e-07
-1.67482e-07
-1.65146e-07
-1.13187e-07
-1.76301e-07
-6.06412e-08
-1.6977e-07
-1.87163e-08
-1.34662e-07
-5.9442e-08
-2.49052e-08
8.26741e-08
-7.92532e-08
1.83463e-07
-1.46843e-07
2.29794e-07
-2.17139e-07
2.39328e-07
-2.84064e-07
2.27069e-07
-3.44071e-07
2.01952e-07
-3.94787e-07
1.68429e-07
-4.34364e-07
1.28701e-07
-4.61255e-07
8.41537e-08
-4.74188e-07
3.60228e-08
-4.72197e-07
-1.4417e-08
-4.54638e-07
-6.57274e-08
-4.21535e-07
-1.15981e-07
-3.73544e-07
-1.63182e-07
-3.12199e-07
-2.04763e-07
-2.40297e-07
-2.37047e-07
-1.62624e-07
-2.53974e-07
-8.7215e-08
-2.45179e-07
-2.6952e-08
-1.94925e-07
-8.63938e-08
-3.4803e-08
1.17477e-07
-1.10229e-07
2.58889e-07
-2.03801e-07
3.23366e-07
-3.01201e-07
3.36729e-07
-3.94336e-07
3.20204e-07
-4.78526e-07
2.86142e-07
-5.50596e-07
2.40499e-07
-6.07967e-07
1.86072e-07
-6.48343e-07
1.2453e-07
-6.69695e-07
5.73746e-08
-6.70379e-07
-1.37328e-08
-6.48787e-07
-8.73204e-08
-6.04537e-07
-1.60231e-07
-5.38122e-07
-2.29597e-07
-4.51421e-07
-2.91464e-07
-3.48378e-07
-3.4009e-07
-2.36106e-07
-3.66246e-07
-1.26654e-07
-3.5463e-07
-3.91106e-08
-2.82468e-07
-1.25504e-07
-4.82687e-08
1.65746e-07
-1.5221e-07
3.62831e-07
-2.80886e-07
4.52041e-07
-4.15049e-07
4.70893e-07
-5.44098e-07
4.49252e-07
-6.62009e-07
4.04053e-07
-7.64637e-07
3.43127e-07
-8.48439e-07
2.69874e-07
-9.10028e-07
1.86119e-07
-9.46124e-07
9.34715e-08
-9.54203e-07
-5.65383e-09
-9.30268e-07
-1.11256e-07
-8.73091e-07
-2.17408e-07
-7.82322e-07
-3.20365e-07
-6.59878e-07
-4.13907e-07
-5.11172e-07
-4.88796e-07
-3.46976e-07
-5.30443e-07
-1.85945e-07
-5.15661e-07
-5.71843e-08
-4.11229e-07
-1.82689e-07
-6.61611e-08
2.31907e-07
-2.07846e-07
5.04516e-07
-3.82957e-07
6.27152e-07
-5.66004e-07
6.53939e-07
-7.43426e-07
6.26674e-07
-9.07763e-07
5.6839e-07
-1.05384e-06
4.89207e-07
-1.17699e-06
3.93024e-07
-1.27237e-06
2.815e-07
-1.33485e-06
1.55943e-07
-1.35966e-06
1.91603e-08
-1.33987e-06
-1.31046e-07
-1.27108e-06
-2.86201e-07
-1.15044e-06
-4.40998e-07
-9.78677e-07
-5.85672e-07
-7.62627e-07
-7.04846e-07
-5.18754e-07
-7.74315e-07
-2.77198e-07
-7.57216e-07
-8.44069e-08
-6.0402e-07
-2.67096e-07
-8.92254e-08
3.21132e-07
-2.79511e-07
6.94801e-07
-5.1441e-07
8.62051e-07
-7.60767e-07
9.00296e-07
-1.0018e-06
8.6771e-07
-1.22883e-06
7.95414e-07
-1.4359e-06
6.96283e-07
-1.61732e-06
5.74442e-07
-1.76658e-06
4.30758e-07
-1.87604e-06
2.65401e-07
-1.93664e-06
7.97619e-08
-1.93845e-06
-1.29233e-07
-1.86866e-06
-3.55992e-07
-1.71809e-06
-5.91564e-07
-1.4822e-06
-8.21571e-07
-1.16704e-06
-1.02e-06
-7.97173e-07
-1.14418e-06
-4.23677e-07
-1.13071e-06
-1.2637e-07
-9.01327e-07
-3.93465e-07
-1.17852e-07
4.38985e-07
-3.68619e-07
9.45567e-07
-6.77832e-07
1.17126e-06
-1.00322e-06
1.22569e-06
-1.32491e-06
1.1894e-06
-1.63378e-06
1.10428e-06
-1.92409e-06
9.86593e-07
-2.18997e-06
8.40325e-07
-2.42381e-06
6.646e-07
-2.61528e-06
4.56864e-07
-2.75046e-06
2.14944e-07
-2.81514e-06
-6.45494e-08
-2.77918e-06
-3.91958e-07
-2.61924e-06
-7.515e-07
-2.31393e-06
-1.12688e-06
-1.85806e-06
-1.47588e-06
-1.28289e-06
-1.71935e-06
-6.77961e-07
-1.73564e-06
-1.94902e-07
-1.38439e-06
-5.88368e-07
-1.51987e-07
5.90971e-07
-4.7514e-07
1.26872e-06
-8.72702e-07
1.56883e-06
-1.29172e-06
1.64471e-06
-1.70997e-06
1.60764e-06
-2.11975e-06
1.51406e-06
-2.51782e-06
1.38467e-06
-2.90076e-06
1.22327e-06
-3.26262e-06
1.02646e-06
-3.59285e-06
7.8709e-07
-3.87354e-06
4.95634e-07
-4.08319e-06
1.45101e-07
-4.17534e-06
-2.99811e-07
-4.08837e-06
-8.38462e-07
-3.75606e-06
-1.45919e-06
-3.12751e-06
-2.10443e-06
-2.21806e-06
-2.6288e-06
-1.17916e-06
-2.77455e-06
-3.24377e-07
-2.23917e-06
-9.12744e-07
-1.92096e-07
7.83067e-07
-5.98371e-07
1.675e-06
-1.09432e-06
2.06477e-06
-1.61605e-06
2.16644e-06
-2.14009e-06
2.13169e-06
-2.66265e-06
2.03662e-06
-3.18688e-06
1.9089e-06
-3.71722e-06
1.75361e-06
-4.25633e-06
1.56557e-06
-4.80184e-06
1.3326e-06
-5.34089e-06
1.03468e-06
-5.83838e-06
6.42589e-07
-6.27042e-06
1.32232e-07
-6.47035e-06
-6.38531e-07
-6.283e-06
-1.64655e-06
-5.52959e-06
-2.85784e-06
-4.1277e-06
-4.03068e-06
-2.28261e-06
-4.61964e-06
-6.25572e-07
-3.89621e-06
-1.53832e-06
-2.44993e-07
1.02806e-06
-7.61598e-07
2.1916e-06
-1.36812e-06
2.6713e-06
-1.98238e-06
2.7807e-06
-2.59196e-06
2.74126e-06
-3.20804e-06
2.6527e-06
-3.84688e-06
2.54773e-06
-4.52715e-06
2.43388e-06
-5.27025e-06
2.30867e-06
-6.09774e-06
2.16008e-06
-7.02185e-06
1.95879e-06
-8.02231e-06
1.64305e-06
-8.99e-06
1.09992e-06
-9.79741e-06
1.6888e-07
-1.00585e-05
-1.38548e-06
-9.3861e-06
-3.53022e-06
-7.50247e-06
-5.91431e-06
-4.55755e-06
-7.56456e-06
-1.45952e-06
-6.99423e-06
-2.99784e-06
-2.77903e-07
1.30596e-06
-8.46816e-07
2.76051e-06
-1.55512e-06
3.37961e-06
-2.27872e-06
3.5043e-06
-2.98261e-06
3.44516e-06
-3.66916e-06
3.33924e-06
-4.36357e-06
3.24215e-06
-5.10541e-06
3.17572e-06
-5.9449e-06
3.14817e-06
-6.93697e-06
3.15215e-06
-8.12549e-06
3.14732e-06
-9.50918e-06
3.02674e-06
-1.09829e-05
2.57361e-06
-1.22582e-05
1.4442e-06
-1.294e-05
-7.0367e-07
-1.26728e-05
-3.79739e-06
-1.10323e-05
-7.55487e-06
-7.80488e-06
-1.07919e-05
-3.40028e-06
-1.13988e-05
-6.39812e-06
-8.059e-07
2.11186e-06
-1.555e-06
3.50961e-06
-2.11615e-06
3.94076e-06
-2.75229e-06
4.14043e-06
-3.39166e-06
4.08453e-06
-3.99128e-06
3.93886e-06
-4.53995e-06
3.79081e-06
-5.05145e-06
3.68723e-06
-5.55369e-06
3.65041e-06
-6.07943e-06
3.67788e-06
-6.65633e-06
3.72422e-06
-7.30008e-06
3.67049e-06
-8.00662e-06
3.28015e-06
-8.7441e-06
2.18167e-06
-9.23289e-06
-2.14873e-07
-9.80249e-06
-3.2278e-06
-9.87659e-06
-7.48077e-06
-8.65801e-06
-1.20105e-05
-5.24878e-06
-1.48081e-05
-1.16469e-05
-3.29063e-06
5.40249e-06
-5.48842e-06
5.70741e-06
-6.27902e-06
4.73136e-06
-6.12633e-06
3.98774e-06
-5.5309e-06
3.4891e-06
-4.69792e-06
3.10588e-06
-3.71618e-06
2.80906e-06
-2.61968e-06
2.59072e-06
-1.40811e-06
2.43884e-06
-6.43127e-08
2.33409e-06
1.4266e-06
2.23332e-06
3.02074e-06
2.07635e-06
4.56778e-06
1.73311e-06
5.62521e-06
1.12424e-06
5.32874e-06
8.15936e-08
4.41582e-06
-2.31487e-06
2.48556e-06
-5.55051e-06
-2.51533e-07
-9.27342e-06
-2.26004e-06
-1.27996e-05
-1.39069e-05
5.40249e-06
1.11099e-05
1.58413e-05
1.9829e-05
2.33181e-05
2.6424e-05
2.9233e-05
3.18238e-05
3.42626e-05
3.65967e-05
3.883e-05
4.09064e-05
4.26395e-05
4.37637e-05
4.38453e-05
4.15304e-05
3.59799e-05
2.67065e-05
1.39069e-05
)
;

boundaryField
{
    movingWall
    {
        type            calculated;
        value           uniform 0;
    }
    fixedWalls
    {
        type            calculated;
        value           uniform 0;
    }
    frontAndBack
    {
        type            empty;
        value           nonuniform 0();
    }
}


// ************************************************************************* //
