/*--------------------------------*- C++ -*----------------------------------*\
  =========                 |
  \\      /  F ield         | OpenFOAM: The Open Source CFD Toolbox
   \\    /   O peration     | Website:  https://openfoam.org
    \\  /    A nd           | Version:  7
     \\/     M anipulation  |
\*---------------------------------------------------------------------------*/
FoamFile
{
    version     2.0;
    format      ascii;
    class       volVectorField;
    location    "0.3";
    object      U;
}
// * * * * * * * * * * * * * * * * * * * * * * * * * * * * * * * * * * * * * //

dimensions      [0 1 -1 0 0 0 0];

internalField   nonuniform List<vector> 
400
(
(-4.83043e-06 1.16133e-05 0)
(-3.66413e-05 3.86532e-05 0)
(-9.95788e-05 5.46458e-05 0)
(-0.000173087 5.94727e-05 0)
(-0.000246049 5.70637e-05 0)
(-0.000312666 5.05106e-05 0)
(-0.000369439 4.15033e-05 0)
(-0.00041404 3.09003e-05 0)
(-0.000444869 1.92136e-05 0)
(-0.000460858 6.85229e-06 0)
(-0.00046143 -5.78726e-06 0)
(-0.000446497 -1.82993e-05 0)
(-0.000416479 -3.02642e-05 0)
(-0.000372321 -4.12293e-05 0)
(-0.000315561 -5.06213e-05 0)
(-0.000248544 -5.7508e-05 0)
(-0.000174878 -6.01216e-05 0)
(-0.000100546 -5.53023e-05 0)
(-3.68949e-05 -3.90919e-05 0)
(-4.81653e-06 -1.16755e-05 0)
(-1.47843e-05 6.90691e-05 0)
(-7.82425e-05 0.000176881 0)
(-0.00018835 0.000233824 0)
(-0.000312412 0.00024877 0)
(-0.000433642 0.000236975 0)
(-0.000543796 0.000209358 0)
(-0.000637609 0.000171941 0)
(-0.00071133 0.000127944 0)
(-0.000762294 7.94255e-05 0)
(-0.000788719 2.81017e-05 0)
(-0.000789638 -2.43536e-05 0)
(-0.000764913 -7.62278e-05 0)
(-0.000715251 -0.000125762 0)
(-0.000642241 -0.000171079 0)
(-0.000548449 -0.000209891 0)
(-0.000437652 -0.000238705 0)
(-0.000315286 -0.00025121 0)
(-0.000189899 -0.000236244 0)
(-7.86494e-05 -0.00017846 0)
(-1.47637e-05 -6.92523e-05 0)
(-1.88015e-05 0.00016721 0)
(-0.000100112 0.000393013 0)
(-0.000241101 0.000504664 0)
(-0.000399154 0.000530879 0)
(-0.000552986 0.000503633 0)
(-0.000692514 0.000444396 0)
(-0.000811332 0.000364927 0)
(-0.000904812 0.000271632 0)
(-0.000969625 0.000168744 0)
(-0.0010035 5.98689e-05 0)
(-0.00100516 -5.14459e-05 0)
(-0.000974354 -0.000161565 0)
(-0.000911902 -0.00026675 0)
(-0.00081972 -0.000363028 0)
(-0.00070096 -0.000445653 0)
(-0.00056029 -0.000507602 0)
(-0.000404416 -0.000536462 0)
(-0.000243956 -0.000510208 0)
(-0.000100886 -0.000396649 0)
(-1.87735e-05 -0.000167655 0)
(-2.41644e-05 0.000286276 0)
(-0.000128912 0.000658716 0)
(-0.000310574 0.000838248 0)
(-0.000514065 0.000878076 0)
(-0.000712081 0.000831589 0)
(-0.000891817 0.000733534 0)
(-0.00104515 0.00060268 0)
(-0.00116618 0.000449207 0)
(-0.00125059 0.000279878 0)
(-0.00129535 0.000100513 0)
(-0.00129867 -8.3109e-05 0)
(-0.00126006 -0.000265028 0)
(-0.00118041 -0.000439074 0)
(-0.00106203 -0.000598678 0)
(-0.000908892 -0.000736036 0)
(-0.000726968 -0.000839707 0)
(-0.000524942 -0.00088959 0)
(-0.000316645 -0.000849791 0)
(-0.000130749 -0.000666447 0)
(-2.42162e-05 -0.00028747 0)
(-3.26559e-05 0.000442941 0)
(-0.000173218 0.00100779 0)
(-0.000416222 0.0012761 0)
(-0.000688143 0.0013337 0)
(-0.000952832 0.00126228 0)
(-0.00119348 0.00111395 0)
(-0.00139941 0.000916489 0)
(-0.00156274 0.000684815 0)
(-0.00167761 0.000428846 0)
(-0.00173977 0.000157172 0)
(-0.00174653 -0.000121589 0)
(-0.0016969 -0.000398445 0)
(-0.00159173 -0.000663981 0)
(-0.00143389 -0.000908108 0)
(-0.0012285 -0.00111882 0)
(-0.000983564 -0.00127867 0)
(-0.000710851 -0.00135718 0)
(-0.000429181 -0.00129995 0)
(-0.000177456 -0.00102425 0)
(-3.29538e-05 -0.000446248 0)
(-4.54128e-05 0.000657136 0)
(-0.000238903 0.00148241 0)
(-0.000571896 0.00187002 0)
(-0.000943999 0.00195142 0)
(-0.00130639 0.00184688 0)
(-0.00163664 0.00163171 0)
(-0.00192043 0.00134551 0)
(-0.00214704 0.00100927 0)
(-0.00230823 0.000636861 0)
(-0.00239781 0.000240392 0)
(-0.00241155 -0.000167837 0)
(-0.00234742 -0.000574781 0)
(-0.002206 -0.00096652 0)
(-0.00199069 -0.00132796 0)
(-0.00170821 -0.00164106 0)
(-0.00136951 -0.00187976 0)
(-0.000991031 -0.00199909 0)
(-0.000599184 -0.00191905 0)
(-0.000248316 -0.0015172 0)
(-4.63297e-05 -0.000665673 0)
(-6.39323e-05 0.000955355 0)
(-0.000333327 0.00213877 0)
(-0.000794664 0.0026891 0)
(-0.00130948 0.00280302 0)
(-0.00181135 0.00265418 0)
(-0.00227021 0.0023494 0)
(-0.00266678 0.00194384 0)
(-0.00298631 0.00146622 0)
(-0.00321708 0.000935306 0)
(-0.00334981 0.000367555 0)
(-0.00337763 -0.000219986 0)
(-0.00329646 -0.000808855 0)
(-0.00310581 -0.00137874 0)
(-0.00280939 -0.00190721 0)
(-0.00241588 -0.00236722 0)
(-0.00194034 -0.00271995 0)
(-0.00140622 -0.00289942 0)
(-0.000851482 -0.00278941 0)
(-0.000353666 -0.00221165 0)
(-6.62717e-05 -0.000975924 0)
(-9.02325e-05 0.00137337 0)
(-0.00046627 0.00305237 0)
(-0.00110708 0.00382605 0)
(-0.00182139 0.00398507 0)
(-0.00251889 0.0037776 0)
(-0.00315951 0.00335328 0)
(-0.0037175 0.00278774 0)
(-0.00417255 0.00211925 0)
(-0.00450781 0.00137228 0)
(-0.00470919 0.00056848 0)
(-0.00476538 -0.000269254 0)
(-0.0046681 -0.00111548 0)
(-0.00441398 -0.00194069 0)
(-0.00400612 -0.00271152 0)
(-0.0034551 -0.00338706 0)
(-0.00278157 -0.00390886 0)
(-0.00201943 -0.00417957 0)
(-0.00122442 -0.00403044 0)
(-0.000509316 -0.00320372 0)
(-9.565e-05 -0.00142038 0)
(-0.000126902 0.00195904 0)
(-0.000650188 0.00432359 0)
(-0.00153779 0.00540402 0)
(-0.00252655 0.00562655 0)
(-0.0034945 0.0053434 0)
(-0.00438906 0.00476234 0)
(-0.00517633 0.00398545 0)
(-0.00582864 0.00306228 0)
(-0.00632178 0.00202331 0)
(-0.00663419 0.000895659 0)
(-0.00674728 -0.000291136 0)
(-0.00664437 -0.00150352 0)
(-0.00631492 -0.00269881 0)
(-0.00575892 -0.00382722 0)
(-0.00498758 -0.00482592 0)
(-0.00402838 -0.00560506 0)
(-0.00293083 -0.00601856 0)
(-0.00177882 -0.0058196 0)
(-0.00073991 -0.0046359 0)
(-0.000138734 -0.00206242 0)
(-0.000177001 0.00277518 0)
(-0.000899845 0.00608362 0)
(-0.00212084 0.0075839 0)
(-0.00348083 0.00789712 0)
(-0.00481709 0.00752041 0)
(-0.00606225 0.00673987 0)
(-0.00717294 0.00569108 0)
(-0.00811228 0.00443576 0)
(-0.00884577 0.0030093 0)
(-0.00934055 0.00144273 0)
(-0.00956701 -0.000228773 0)
(-0.00949195 -0.00196135 0)
(-0.00908805 -0.00369723 0)
(-0.00834617 -0.00536208 0)
(-0.00727298 -0.00685749 0)
(-0.00590223 -0.00804113 0)
(-0.00430625 -0.00868737 0)
(-0.00261502 -0.00842875 0)
(-0.00108498 -0.00672549 0)
(-0.00020185 -0.00299628 0)
(-0.000243708 0.00390155 0)
(-0.00123091 0.00849874 0)
(-0.00289276 0.0105699 0)
(-0.0047447 0.0110142 0)
(-0.00657319 0.0105294 0)
(-0.00829503 0.0095065 0)
(-0.00985747 0.00812233 0)
(-0.0112134 0.00644999 0)
(-0.0123156 0.00452543 0)
(-0.0131155 0.00237816 0)
(-0.0135621 4.49804e-05 0)
(-0.0135968 -0.00242141 0)
(-0.0131606 -0.00495035 0)
(-0.0122146 -0.00743358 0)
(-0.0107455 -0.00971522 0)
(-0.00878563 -0.0115618 0)
(-0.00643778 -0.0126091 0)
(-0.00390958 -0.0122914 0)
(-0.00161113 -0.00981654 0)
(-0.000294155 -0.00436475 0)
(-0.000329589 0.00543436 0)
(-0.00165701 0.0117706 0)
(-0.00388631 0.0146102 0)
(-0.00637302 0.0152447 0)
(-0.00884285 0.0146486 0)
(-0.0111986 0.0133519 0)
(-0.0133815 0.0115815 0)
(-0.0153367 0.00941801 0)
(-0.0170041 0.00688883 0)
(-0.0183135 0.00400999 0)
(-0.0191816 0.000806786 0)
(-0.0195139 -0.00267525 0)
(-0.0191923 -0.00636524 0)
(-0.0181026 -0.0101149 0)
(-0.0161694 -0.0136818 0)
(-0.0133889 -0.0166726 0)
(-0.00988926 -0.0184651 0)
(-0.00600732 -0.0181345 0)
(-0.00244118 -0.0144814 0)
(-0.000427945 -0.00638696 0)
(-0.000435561 0.0074815 0)
(-0.00218549 0.0161286 0)
(-0.00512073 0.0199873 0)
(-0.0083977 0.0208952 0)
(-0.0116727 0.020206 0)
(-0.0148418 0.0186345 0)
(-0.0178508 0.0164679 0)
(-0.0206463 0.013788 0)
(-0.0231628 0.0105974 0)
(-0.025311 0.00687509 0)
(-0.0269736 0.00260219 0)
(-0.0280109 -0.00222287 0)
(-0.0281979 -0.00755805 0)
(-0.0272592 -0.0132614 0)
(-0.0249584 -0.0189847 0)
(-0.0211383 -0.0240671 0)
(-0.0158744 -0.027384 0)
(-0.00968641 -0.0272723 0)
(-0.00384827 -0.0217627 0)
(-0.000622635 -0.00941422 0)
(-0.000560873 0.0101534 0)
(-0.0028153 0.021812 0)
(-0.00659366 0.0269922 0)
(-0.0108084 0.0282814 0)
(-0.0150397 0.027549 0)
(-0.0191932 0.0257557 0)
(-0.0232418 0.0232654 0)
(-0.0271591 0.0201562 0)
(-0.0309002 0.0163875 0)
(-0.034384 0.0118647 0)
(-0.0374819 0.00646593 0)
(-0.0399946 6.96573e-05 0)
(-0.0415932 -0.00741093 0)
(-0.0417281 -0.0160214 0)
(-0.0397367 -0.0253866 0)
(-0.0349908 -0.0344986 0)
(-0.0271822 -0.04129 0)
(-0.0169232 -0.0423985 0)
(-0.0066041 -0.0339722 0)
(-0.000946292 -0.0142095 0)
(-0.000709821 0.013568 0)
(-0.00354904 0.0290818 0)
(-0.00828169 0.0358894 0)
(-0.0135337 0.0376153 0)
(-0.0188094 0.0368706 0)
(-0.0240457 0.0349606 0)
(-0.0292755 0.0323493 0)
(-0.0345459 0.0291089 0)
(-0.039898 0.0251419 0)
(-0.0453387 0.0202478 0)
(-0.0507907 0.0141266 0)
(-0.0560722 0.00637636 0)
(-0.0608874 -0.00347732 0)
(-0.0642958 -0.0158461 0)
(-0.0646645 -0.0309494 0)
(-0.0602124 -0.0476914 0)
(-0.0493735 -0.0624938 0)
(-0.0322942 -0.0682116 0)
(-0.0130352 -0.0559179 0)
(-0.00174263 -0.0225804 0)
(-0.000906955 0.0176835 0)
(-0.00453321 0.0378244 0)
(-0.0104544 0.0467481 0)
(-0.0167557 0.049259 0)
(-0.0229045 0.0487471 0)
(-0.0290081 0.0469355 0)
(-0.0352503 0.0444955 0)
(-0.0418093 0.0415994 0)
(-0.0488895 0.038179 0)
(-0.0567214 0.033983 0)
(-0.0655064 0.0285278 0)
(-0.0752395 0.0209657 0)
(-0.0854182 0.0099357 0)
(-0.094918 -0.00641416 0)
(-0.100901 -0.0298958 0)
(-0.0991463 -0.0602175 0)
(-0.0860749 -0.0918371 0)
(-0.0609675 -0.110642 0)
(-0.0289087 -0.0962092 0)
(-0.00506187 -0.0382639 0)
(-0.00110918 0.0251463 0)
(-0.00500728 0.0514819 0)
(-0.0117354 0.0604372 0)
(-0.0192012 0.0612493 0)
(-0.0263932 0.059532 0)
(-0.033296 0.0574826 0)
(-0.0401231 0.0556319 0)
(-0.0472039 0.0540105 0)
(-0.0549912 0.0525376 0)
(-0.0640378 0.0509861 0)
(-0.0749351 0.0487072 0)
(-0.0881103 0.0441142 0)
(-0.103218 0.0340037 0)
(-0.118107 0.0133636 0)
(-0.128617 -0.022898 0)
(-0.130272 -0.0758474 0)
(-0.119282 -0.137315 0)
(-0.0942762 -0.184208 0)
(-0.0581002 -0.178679 0)
(-0.0158333 -0.0814493 0)
(-0.00449772 0.0205138 0)
(-0.0115992 0.0524066 0)
(-0.0180942 0.0721942 0)
(-0.0242899 0.0800448 0)
(-0.0308487 0.0811383 0)
(-0.0371137 0.0795376 0)
(-0.0428077 0.0774183 0)
(-0.0479931 0.075892 0)
(-0.0529212 0.0755112 0)
(-0.0579468 0.076243 0)
(-0.063493 0.0770149 0)
(-0.0700347 0.0749689 0)
(-0.0778793 0.0646712 0)
(-0.0862029 0.0384374 0)
(-0.0923388 -0.0116045 0)
(-0.0973384 -0.0900198 0)
(-0.0972525 -0.186359 0)
(-0.0895806 -0.275495 0)
(-0.0735222 -0.310095 0)
(-0.026116 -0.204464 0)
(-0.0225645 0.0876686 0)
(-0.0482004 0.104609 0)
(-0.0618014 0.0902958 0)
(-0.0631055 0.0808596 0)
(-0.0587466 0.0739098 0)
(-0.0513538 0.0680639 0)
(-0.0421299 0.0636451 0)
(-0.0316581 0.0608909 0)
(-0.0201003 0.0597465 0)
(-0.00740955 0.0598016 0)
(0.00655952 0.0600531 0)
(0.0215801 0.0583553 0)
(0.0369548 0.0510722 0)
(0.0498834 0.0325581 0)
(0.0525429 -0.00452002 0)
(0.0485064 -0.0657339 0)
(0.0381535 -0.152779 0)
(0.018925 -0.25706 0)
(-0.0197334 -0.344397 0)
(-0.0059081 -0.313462 0)
(0.0698633 0.0826247 0)
(0.0735061 0.0986858 0)
(0.127834 0.091376 0)
(0.177285 0.0823065 0)
(0.216668 0.07391 0)
(0.249668 0.0663205 0)
(0.278927 0.059583 0)
(0.305764 0.0537319 0)
(0.330715 0.0487342 0)
(0.354401 0.0445745 0)
(0.376431 0.040836 0)
(0.397548 0.0376782 0)
(0.414603 0.0331816 0)
(0.429475 0.0283475 0)
(0.431576 0.0181333 0)
(0.426883 0.00646009 0)
(0.394399 -0.0116684 0)
(0.34325 -0.0276131 0)
(0.221358 -0.0490092 0)
(0.123487 -0.111324 0)
)
;

boundaryField
{
    movingWall
    {
        type            fixedValue;
        value           uniform (1 0 0);
    }
    fixedWalls
    {
        type            noSlip;
    }
    frontAndBack
    {
        type            empty;
    }
}


// ************************************************************************* //
