/*--------------------------------*- C++ -*----------------------------------*\
  =========                 |
  \\      /  F ield         | OpenFOAM: The Open Source CFD Toolbox
   \\    /   O peration     | Website:  https://openfoam.org
    \\  /    A nd           | Version:  7
     \\/     M anipulation  |
\*---------------------------------------------------------------------------*/
FoamFile
{
    version     2.0;
    format      ascii;
    class       volScalarField;
    location    "0.4";
    object      p;
}
// * * * * * * * * * * * * * * * * * * * * * * * * * * * * * * * * * * * * * //

dimensions      [0 2 -2 0 0 0 0];

internalField   nonuniform List<scalar> 
400
(
1.40549e-06
5.01838e-05
6.99985e-05
4.46765e-05
-2.50322e-05
-0.000135101
-0.00027952
-0.000450863
-0.000641274
-0.000843043
-0.0010487
-0.00125085
-0.00144193
-0.00161405
-0.00175916
-0.00186964
-0.00193938
-0.00196437
-0.00194416
-0.0018956
-8.30112e-05
-1.4841e-05
4.43661e-06
-2.84777e-05
-0.000101613
-0.00020823
-0.000342948
-0.000499727
-0.000672211
-0.00085409
-0.00103915
-0.00122118
-0.00139393
-0.00155097
-0.00168583
-0.00179237
-0.00186512
-0.00189734
-0.00187704
-0.00180774
8.41403e-05
0.000155165
0.000163524
0.000109759
1.237e-05
-0.000118546
-0.000276172
-0.000453956
-0.000645672
-0.000845588
-0.00104831
-0.00124851
-0.00144071
-0.00161899
-0.0017769
-0.00190767
-0.00200432
-0.00205663
-0.00204598
-0.00197215
0.00054562
0.000571835
0.000526963
0.000416997
0.000263102
7.8071e-05
-0.000129619
-0.00035306
-0.000586669
-0.000826055
-0.00106755
-0.00130766
-0.00154255
-0.00176744
-0.00197629
-0.0021617
-0.00231478
-0.00242234
-0.00246272
-0.00243055
0.00136463
0.00127782
0.00111817
0.000901648
0.000648319
0.000373053
8.58319e-05
-0.000206932
-0.000501747
-0.00079731
-0.0010936
-0.00139092
-0.00168889
-0.00198553
-0.00227639
-0.00255398
-0.00280749
-0.00302078
-0.00317241
-0.00324737
0.00261681
0.00230917
0.00194195
0.00154787
0.00113962
0.000732405
0.000337057
-4.25427e-05
-0.000407908
-0.000764186
-0.0011186
-0.00147887
-0.00185158
-0.00224062
-0.00264572
-0.0030609
-0.0034729
-0.00386405
-0.00421802
-0.00450328
0.00436759
0.00366865
0.00295414
0.00228451
0.00165272
0.0010705
0.000547117
7.99643e-05
-0.000342692
-0.000738267
-0.00112735
-0.00153126
-0.00196954
-0.00245751
-0.00300371
-0.0036067
-0.00425261
-0.00492378
-0.00561889
-0.00627857
0.00662594
0.00527394
0.00400948
0.00293531
0.0020023
0.00121034
0.000562345
4.2144e-05
-0.000380861
-0.000745672
-0.00109593
-0.00147645
-0.00192949
-0.00249108
-0.00318687
-0.00402617
-0.00499736
-0.00608835
-0.00733045
-0.00861973
0.00925312
0.00686447
0.00476936
0.00313198
0.00182295
0.000814816
9.50301e-05
-0.000377727
-0.000666218
-0.000844961
-0.000995068
-0.00119972
-0.00153902
-0.00208468
-0.00289359
-0.00399709
-0.00539297
-0.00708565
-0.00916943
-0.0114714
0.0118053
0.0078461
0.00455441
0.00217862
0.000447664
-0.000719964
-0.00136773
-0.00157963
-0.00146949
-0.0011666
-0.000809465
-0.000540715
-0.000500701
-0.000820238
-0.00161076
-0.00294612
-0.00484855
-0.00736035
-0.0106892
-0.0145587
0.0132802
0.00705024
0.00212109
-0.00115139
-0.00327421
-0.0044262
-0.00470611
-0.00426489
-0.00329173
-0.00199443
-0.000593707
0.000680788
0.00159715
0.00193014
0.00147573
8.11397e-05
-0.00233101
-0.00588219
-0.0109766
-0.0171876
0.0117334
0.00237829
-0.00466106
-0.00890454
-0.0112348
-0.0119954
-0.0113765
-0.00962656
-0.00703648
-0.00391669
-0.000595683
0.00257869
0.00524292
0.00702674
0.00757317
0.00658639
0.00387248
-0.000849777
-0.0083213
-0.0179075
0.00373374
-0.00969734
-0.0192515
-0.0243308
-0.0264
-0.0260725
-0.0236811
-0.0196045
-0.0142562
-0.00806228
-0.00147385
0.00501837
0.0108771
0.0155214
0.0183511
0.018818
0.0164923
0.0107729
0.00033398
-0.0139293
-0.0163798
-0.0348125
-0.047012
-0.0523365
-0.0531581
-0.050531
-0.0450034
-0.0371117
-0.027389
-0.0163578
-0.00457002
0.00734801
0.0186636
0.02852
0.0359542
0.0399938
0.039752
0.033991
0.0203314
-8.72113e-05
-0.0575769
-0.0816678
-0.0959015
-0.0998835
-0.0974746
-0.0904612
-0.0797063
-0.065909
-0.0496676
-0.0315097
-0.0119856
0.0082348
0.0282779
0.0469989
0.0629615
0.0745408
0.0800301
0.0769628
0.0609829
0.0331568
-0.134426
-0.163857
-0.177417
-0.176044
-0.166305
-0.151183
-0.131932
-0.109342
-0.0839136
-0.0559613
-0.0257816
0.00617127
0.0391252
0.0718225
0.102398
0.128417
0.146911
0.153201
0.139087
0.104192
-0.272971
-0.303869
-0.307942
-0.291011
-0.265035
-0.23479
-0.201741
-0.166415
-0.128809
-0.0885669
-0.0452376
0.00148466
0.0515287
0.104152
0.157634
0.209081
0.254091
0.284442
0.284667
0.24897
-0.524952
-0.536188
-0.505231
-0.450804
-0.391862
-0.33446
-0.279502
-0.226385
-0.173718
-0.119662
-0.0622209
0.000534735
0.0702279
0.14788
0.233399
0.324867
0.417285
0.498936
0.54581
0.538939
-1.09706
-0.944675
-0.779523
-0.638999
-0.520879
-0.421175
-0.336763
-0.263447
-0.196449
-0.131073
-0.0627903
0.0129107
0.100443
0.204355
0.328944
0.47713
0.648643
0.840868
1.04918
1.23247
-2.76822
-1.79752
-1.13966
-0.765044
-0.531123
-0.375742
-0.271439
-0.198991
-0.143894
-0.0955689
-0.0457106
0.0133484
0.0903388
0.196421
0.347022
0.56237
0.868157
1.31587
2.03251
3.04343
)
;

boundaryField
{
    movingWall
    {
        type            zeroGradient;
    }
    fixedWalls
    {
        type            zeroGradient;
    }
    frontAndBack
    {
        type            empty;
    }
}


// ************************************************************************* //
