/*--------------------------------*- C++ -*----------------------------------*\
  =========                 |
  \\      /  F ield         | OpenFOAM: The Open Source CFD Toolbox
   \\    /   O peration     | Website:  https://openfoam.org
    \\  /    A nd           | Version:  7
     \\/     M anipulation  |
\*---------------------------------------------------------------------------*/
FoamFile
{
    version     2.0;
    format      ascii;
    class       surfaceScalarField;
    location    "0.4";
    object      phi;
}
// * * * * * * * * * * * * * * * * * * * * * * * * * * * * * * * * * * * * * //

dimensions      [0 3 -1 0 0 0 0];

internalField   nonuniform List<scalar> 
760
(
8.97214e-10
-9.20598e-10
3.79969e-09
-2.90244e-09
8.00912e-09
-4.20942e-09
1.27364e-08
-4.72743e-09
1.73651e-08
-4.62925e-09
2.1475e-08
-4.11083e-09
2.48141e-08
-3.34036e-09
2.72542e-08
-2.44138e-09
2.87429e-08
-1.48983e-09
2.92634e-08
-5.21418e-10
2.88089e-08
4.5403e-10
2.73738e-08
1.43471e-09
2.49655e-08
2.40803e-09
2.16318e-08
3.33325e-09
1.75027e-08
4.12817e-09
1.2838e-08
4.66318e-09
8.07047e-09
4.76574e-09
3.82977e-09
4.2388e-09
9.1514e-10
2.91305e-09
9.14377e-10
2.86375e-09
-3.78457e-09
9.0059e-09
-9.04466e-09
1.67355e-08
-1.19387e-08
2.48247e-08
-1.2816e-08
3.24009e-08
-1.22045e-08
3.89175e-08
-1.06262e-08
4.40892e-08
-8.51075e-09
4.78088e-08
-6.16001e-09
5.00653e-08
-3.74561e-09
5.08751e-08
-1.3307e-09
5.02383e-08
1.09119e-09
4.81258e-08
3.54776e-09
4.4498e-08
6.03677e-09
3.93536e-08
8.47921e-09
3.28004e-08
1.06835e-08
2.51383e-08
1.23278e-08
1.69392e-08
1.29674e-08
9.10558e-09
1.20745e-08
2.8913e-09
9.12831e-09
3.80427e-09
3.34613e-09
-7.13066e-09
9.99166e-09
-1.56907e-08
1.76124e-08
-1.95602e-08
2.47656e-08
-1.99699e-08
3.06865e-08
-1.81258e-08
3.51203e-08
-1.50602e-08
3.81564e-08
-1.15467e-08
4.00628e-08
-8.06612e-09
4.11384e-08
-4.82095e-09
4.1598e-08
-1.79021e-09
4.15009e-08
1.18801e-09
4.07302e-08
4.31772e-09
3.90243e-08
7.74174e-09
3.60567e-08
1.14458e-08
3.15574e-08
1.51822e-08
2.54618e-08
1.84234e-08
1.80732e-08
2.03568e-08
1.02192e-08
1.99296e-08
3.40548e-09
1.59432e-08
7.20962e-09
2.7604e-09
-9.8906e-09
6.93791e-09
-1.98681e-08
9.99725e-09
-2.26197e-08
1.07791e-08
-2.07522e-08
9.16167e-09
-1.6509e-08
5.74151e-09
-1.16407e-08
1.52151e-09
-7.32723e-09
-2.38396e-09
-4.16089e-09
-5.00272e-09
-2.20213e-09
-5.6966e-09
-1.09603e-09
-4.27803e-09
-2.30194e-10
-1.04372e-09
1.08361e-09
3.27699e-09
3.42085e-09
7.6548e-09
7.0674e-09
1.09644e-08
1.18716e-08
1.22441e-08
1.71426e-08
1.09862e-08
2.16137e-08
7.43818e-09
2.34772e-08
2.8951e-09
2.04864e-08
1.01051e-08
7.31766e-10
-1.06224e-08
-1.82906e-09
-1.73072e-08
-9.91616e-09
-1.45324e-08
-2.36515e-08
-7.0166e-09
-4.1656e-08
1.49551e-09
-6.16036e-08
8.30668e-09
-8.0757e-08
1.18258e-08
-9.64521e-08
1.15337e-08
-1.06509e-07
7.85454e-09
-1.09539e-07
1.93328e-09
-1.05125e-07
-4.64333e-09
-9.38811e-08
-1.01601e-08
-7.73637e-08
-1.30959e-08
-5.78656e-08
-1.24301e-08
-3.80857e-08
-7.90807e-09
-2.06974e-08
-2.45803e-10
-7.87913e-09
8.795e-09
-7.69742e-10
1.63673e-08
1.02971e-09
1.86866e-08
1.11349e-08
-3.72368e-09
-6.89907e-09
-1.99612e-08
-1.07012e-09
-4.9742e-08
1.52482e-08
-9.09098e-08
3.41512e-08
-1.39208e-07
4.97944e-08
-1.89223e-07
5.83211e-08
-2.35227e-07
5.78299e-08
-2.71953e-07
4.82603e-08
-2.95225e-07
3.11256e-08
-3.02416e-07
9.12447e-09
-2.92736e-07
-1.43241e-08
-2.67305e-07
-3.55914e-08
-2.29038e-07
-5.13632e-08
-1.82322e-07
-5.91455e-08
-1.32513e-07
-5.77162e-08
-8.52737e-08
-4.74848e-08
-4.57653e-08
-3.0713e-08
-1.78327e-08
-1.1565e-08
-3.09932e-09
3.95317e-09
8.03559e-09
-1.22809e-08
5.38158e-09
-5.34971e-08
4.01455e-08
-1.21791e-07
8.35416e-08
-2.10664e-07
1.23024e-07
-3.10833e-07
1.49963e-07
-4.11723e-07
1.5921e-07
-5.02776e-07
1.48884e-07
-5.746e-07
1.20084e-07
-6.19881e-07
7.64073e-08
-6.34065e-07
2.33085e-08
-6.15756e-07
-3.26335e-08
-5.66842e-07
-8.45054e-08
-4.92333e-07
-1.25873e-07
-3.99902e-07
-1.51577e-07
-2.9915e-07
-1.58468e-07
-2.00604e-07
-1.4603e-07
-1.14507e-07
-1.16809e-07
-4.94768e-08
-7.65951e-08
-1.10477e-08
-3.44756e-08
-3.0119e-09
-2.74986e-08
3.28799e-08
-1.11455e-07
1.24102e-07
-2.44138e-07
2.16224e-07
-4.11412e-07
2.90297e-07
-5.95709e-07
3.3426e-07
-7.78303e-07
3.41803e-07
-9.41211e-07
3.11792e-07
-1.06881e-06
2.4768e-07
-1.14909e-06
1.56691e-07
-1.17461e-06
4.88268e-08
-1.14302e-06
-6.4227e-08
-1.05726e-06
-1.70258e-07
-9.25411e-07
-2.57726e-07
-7.60024e-07
-3.16963e-07
-5.77165e-07
-3.41328e-07
-3.94962e-07
-3.28234e-07
-2.31827e-07
-2.79943e-07
-1.04399e-07
-2.04023e-07
-2.5226e-08
-1.13648e-07
-2.82375e-08
-5.30178e-08
8.58972e-08
-2.06354e-07
2.77437e-07
-4.41452e-07
4.51322e-07
-7.31502e-07
5.80346e-07
-1.04596e-06
6.48723e-07
-1.35385e-06
6.49685e-07
-1.62631e-06
5.84249e-07
-1.83876e-06
4.60132e-07
-1.97251e-06
2.90449e-07
-2.01595e-06
9.22637e-08
-1.96524e-06
-1.14939e-07
-1.82465e-06
-3.1085e-07
-1.60637e-06
-4.75999e-07
-1.32986e-06
-5.93478e-07
-1.02051e-06
-6.50673e-07
-7.07824e-07
-6.40922e-07
-4.22836e-07
-5.64931e-07
-1.95112e-07
-4.31747e-07
-4.91657e-08
-2.59595e-07
-7.74027e-08
-9.36845e-08
1.79581e-07
-3.54386e-07
5.38138e-07
-7.44941e-07
8.41877e-07
-1.21853e-06
1.05394e-06
-1.72526e-06
1.15545e-06
-2.21659e-06
1.14101e-06
-2.64862e-06
1.01628e-06
-2.98463e-06
7.9614e-07
-3.19691e-06
5.02728e-07
-3.26811e-06
1.63463e-07
-3.19212e-06
-1.90935e-07
-2.97452e-06
-5.28448e-07
-2.63261e-06
-8.17908e-07
-2.19479e-06
-1.0313e-06
-1.69922e-06
-1.14624e-06
-1.19153e-06
-1.14861e-06
-7.21534e-07
-1.03492e-06
-3.38924e-07
-8.14357e-07
-8.78687e-08
-5.10649e-07
-1.65271e-07
-1.55474e-07
3.35055e-07
-5.7473e-07
9.57393e-07
-1.19032e-06
1.45747e-06
-1.92526e-06
1.78887e-06
-2.70213e-06
1.93233e-06
-3.44871e-06
1.88759e-06
-4.1016e-06
1.66917e-06
-4.6088e-06
1.30334e-06
-4.93137e-06
8.25303e-07
-5.04463e-06
2.76722e-07
-4.93904e-06
-2.96529e-07
-4.6209e-06
-8.46582e-07
-4.11282e-06
-1.32599e-06
-3.4536e-06
-1.69052e-06
-2.69734e-06
-1.90251e-06
-1.91125e-06
-1.93471e-06
-1.17177e-06
-1.7744e-06
-5.58901e-07
-1.42723e-06
-1.48237e-07
-9.21313e-07
-3.13507e-07
-2.45074e-07
5.80128e-07
-8.87445e-07
1.59976e-06
-1.81249e-06
2.38252e-06
-2.89958e-06
2.87597e-06
-4.03422e-06
3.06697e-06
-5.11441e-06
2.96777e-06
-6.05388e-06
2.60864e-06
-6.7836e-06
2.03306e-06
-7.25237e-06
1.29407e-06
-7.42716e-06
4.51508e-07
-7.29362e-06
-4.30066e-07
-6.85706e-06
-1.28314e-06
-6.1437e-06
-2.03935e-06
-5.20198e-06
-2.63224e-06
-4.10321e-06
-3.00127e-06
-2.94074e-06
-3.09718e-06
-1.82655e-06
-2.88858e-06
-8.84598e-07
-2.36918e-06
-2.39621e-07
-1.56629e-06
-5.53128e-07
-3.69175e-07
9.49302e-07
-1.3098e-06
2.54039e-06
-2.63592e-06
3.70863e-06
-4.16597e-06
4.40602e-06
-5.73854e-06
4.63954e-06
-7.21814e-06
4.44737e-06
-8.49599e-06
3.88649e-06
-9.48836e-06
3.02543e-06
-1.01342e-05
1.93993e-06
-1.03933e-05
7.10607e-07
-1.02455e-05
-5.7787e-07
-9.69171e-06
-1.83694e-06
-8.75652e-06
-2.97454e-06
-7.49219e-06
-3.89657e-06
-5.98299e-06
-4.51047e-06
-4.34843e-06
-4.73175e-06
-2.74326e-06
-4.49375e-06
-1.35196e-06
-3.76048e-06
-3.74558e-07
-2.54369e-06
-9.27686e-07
-5.34251e-07
1.48355e-06
-1.85226e-06
3.8584e-06
-3.66082e-06
5.51719e-06
-5.69584e-06
6.44104e-06
-7.74174e-06
6.68543e-06
-9.63296e-06
6.3386e-06
-1.12476e-05
5.50113e-06
-1.24985e-05
4.27633e-06
-1.33247e-05
2.76617e-06
-1.36851e-05
1.07098e-06
-1.35547e-05
-7.08283e-07
-1.29251e-05
-2.46657e-06
-1.18086e-05
-4.09106e-06
-1.02463e-05
-5.45878e-06
-8.31963e-06
-6.43718e-06
-6.16193e-06
-6.88945e-06
-3.96895e-06
-6.68673e-06
-2.00099e-06
-5.72845e-06
-5.69973e-07
-3.9747e-06
-1.49766e-06
-7.49736e-07
2.23329e-06
-2.51822e-06
5.62689e-06
-4.84644e-06
7.84541e-06
-7.36247e-06
8.95707e-06
-9.79996e-06
9.12293e-06
-1.19838e-05
8.52245e-06
-1.38065e-05
7.32386e-06
-1.52052e-05
5.67497e-06
-1.6142e-05
3.70298e-06
-1.65904e-05
1.51941e-06
-1.65269e-05
-7.71797e-07
-1.5929e-05
-3.06444e-06
-1.47806e-05
-5.23952e-06
-1.30842e-05
-7.15515e-06
-1.08823e-05
-8.63904e-06
-8.28507e-06
-9.48671e-06
-5.50171e-06
-9.47009e-06
-2.86757e-06
-8.36259e-06
-8.4969e-07
-5.99258e-06
-2.34735e-06
-1.04085e-06
3.27414e-06
-3.3125e-06
7.89854e-06
-6.08356e-06
1.06165e-05
-8.85737e-06
1.17309e-05
-1.13549e-05
1.16205e-05
-1.34496e-05
1.06171e-05
-1.51073e-05
8.9815e-06
-1.63397e-05
6.90746e-06
-1.71718e-05
4.53508e-06
-1.76188e-05
1.96635e-06
-1.76728e-05
-7.17723e-07
-1.72981e-05
-3.43918e-06
-1.64334e-05
-6.10424e-06
-1.50064e-05
-8.58215e-06
-1.29621e-05
-1.06833e-05
-1.03099e-05
-1.21389e-05
-7.18978e-06
-1.25902e-05
-3.9547e-06
-1.15977e-05
-1.24769e-06
-8.69959e-06
-3.59504e-06
-1.46672e-06
4.74086e-06
-4.21757e-06
1.06494e-05
-7.06497e-06
1.34639e-05
-9.44248e-06
1.41084e-05
-1.11966e-05
1.33746e-05
-1.23774e-05
1.1798e-05
-1.31198e-05
9.72393e-06
-1.35757e-05
7.36333e-06
-1.38745e-05
4.83387e-06
-1.41013e-05
2.19314e-06
-1.42839e-05
-5.35079e-07
-1.43855e-05
-3.33766e-06
-1.43005e-05
-6.18925e-06
-1.38601e-05
-9.02254e-06
-1.28531e-05
-1.16902e-05
-1.10771e-05
-1.39149e-05
-8.43594e-06
-1.52314e-05
-5.10505e-06
-1.49286e-05
-1.79545e-06
-1.20092e-05
-5.39049e-06
-2.11524e-06
6.8561e-06
-4.85283e-06
1.3387e-05
-6.55513e-06
1.51662e-05
-6.99865e-06
1.45519e-05
-6.48203e-06
1.2858e-05
-5.40725e-06
1.07232e-05
-4.14911e-06
8.46579e-06
-3.01079e-06
6.22501e-06
-2.21384e-06
4.03692e-06
-1.90126e-06
1.88056e-06
-2.14047e-06
-2.95864e-07
-2.91912e-06
-2.55901e-06
-4.1341e-06
-4.97426e-06
-5.57252e-06
-7.58412e-06
-6.89619e-06
-1.03666e-05
-7.64872e-06
-1.31624e-05
-7.31833e-06
-1.55618e-05
-5.51506e-06
-1.67318e-05
-2.45586e-06
-1.50684e-05
-7.84636e-06
-2.82552e-06
9.68162e-06
-2.60229e-06
1.31637e-05
4.85007e-07
1.20789e-05
4.93484e-06
1.01021e-05
9.76103e-06
8.03178e-06
1.43405e-05
6.14367e-06
1.82847e-05
4.52162e-06
2.13592e-05
3.15054e-06
2.34246e-05
1.97154e-06
2.43946e-05
9.10488e-07
2.42115e-05
-1.12718e-07
2.28425e-05
-1.19006e-06
2.02834e-05
-2.4151e-06
1.65963e-05
-3.89704e-06
1.19668e-05
-5.73704e-06
6.78983e-06
-7.98547e-06
1.7735e-06
-1.05455e-05
-1.93704e-06
-1.30213e-05
-2.64679e-06
-1.43586e-05
-1.04931e-05
9.68162e-06
2.28454e-05
3.49242e-05
4.50263e-05
5.30581e-05
5.92018e-05
6.37234e-05
6.68739e-05
6.88455e-05
6.9756e-05
6.96432e-05
6.84532e-05
6.60381e-05
6.2141e-05
5.6404e-05
4.84185e-05
3.78731e-05
2.48518e-05
1.04932e-05
)
;

boundaryField
{
    movingWall
    {
        type            calculated;
        value           uniform 0;
    }
    fixedWalls
    {
        type            calculated;
        value           uniform 0;
    }
    frontAndBack
    {
        type            empty;
        value           nonuniform 0();
    }
}


// ************************************************************************* //
