/*--------------------------------*- C++ -*----------------------------------*\
  =========                 |
  \\      /  F ield         | OpenFOAM: The Open Source CFD Toolbox
   \\    /   O peration     | Website:  https://openfoam.org
    \\  /    A nd           | Version:  7
     \\/     M anipulation  |
\*---------------------------------------------------------------------------*/
FoamFile
{
    version     2.0;
    format      ascii;
    class       volVectorField;
    location    "0.4";
    object      U;
}
// * * * * * * * * * * * * * * * * * * * * * * * * * * * * * * * * * * * * * //

dimensions      [0 1 -1 0 0 0 0];

internalField   nonuniform List<vector> 
400
(
(3.0276e-06 -5.48318e-06 0)
(2.0538e-05 -2.04563e-05 0)
(5.6921e-05 -3.14159e-05 0)
(0.000103193 -3.6415e-05 0)
(0.000151168 -3.6294e-05 0)
(0.000195587 -3.25597e-05 0)
(0.000233238 -2.66116e-05 0)
(0.000262331 -1.95044e-05 0)
(0.000282053 -1.19002e-05 0)
(0.000292126 -4.12522e-06 0)
(0.00029247 3.71131e-06 0)
(0.000283019 1.15684e-05 0)
(0.000263741 1.93168e-05 0)
(0.000234837 2.65936e-05 0)
(0.000197107 3.26916e-05 0)
(0.00015239 3.6513e-05 0)
(0.000104007 3.66295e-05 0)
(5.73623e-05 3.15322e-05 0)
(2.07591e-05 2.04204e-05 0)
(3.10654e-06 5.36144e-06 0)
(1.20407e-05 -4.26351e-05 0)
(5.47239e-05 -0.000109945 0)
(0.000125724 -0.000150891 0)
(0.000207789 -0.000166334 0)
(0.000288031 -0.000161671 0)
(0.00035945 -0.000143154 0)
(0.000418297 -0.000116247 0)
(0.000462851 -8.49937e-05 0)
(0.000492695 -5.19055e-05 0)
(0.00050799 -1.81886e-05 0)
(0.000508891 1.57964e-05 0)
(0.000495247 4.99496e-05 0)
(0.000466628 8.38137e-05 0)
(0.000422684 0.000116007 0)
(0.000363772 0.0001438 0)
(0.000291691 0.000162937 0)
(0.000210399 0.0001678 0)
(0.00012719 0.000152096 0)
(5.52728e-05 0.000110546 0)
(1.21335e-05 4.2634e-05 0)
(1.48187e-05 -0.000110272 0)
(6.31057e-05 -0.000252423 0)
(0.000136673 -0.000325644 0)
(0.000213726 -0.000344186 0)
(0.000280576 -0.000323819 0)
(0.000332471 -0.000279103 0)
(0.000369279 -0.000221665 0)
(0.000393226 -0.000159434 0)
(0.000407457 -9.66699e-05 0)
(0.000414772 -3.46139e-05 0)
(0.000416657 2.7421e-05 0)
(0.000412812 9.07046e-05 0)
(0.000401202 0.000155674 0)
(0.000378639 0.000220632 0)
(0.000341819 0.000280741 0)
(0.000288631 0.000327488 0)
(0.000219584 0.000348792 0)
(0.000140018 0.000329888 0)
(6.4346e-05 0.000255174 0)
(1.50122e-05 0.000111025 0)
(1.40385e-05 -0.000177208 0)
(4.97928e-05 -0.000377338 0)
(8.83668e-05 -0.000457934 0)
(0.000109466 -0.000455029 0)
(0.000104838 -0.000401099 0)
(7.75486e-05 -0.000322875 0)
(3.65915e-05 -0.00023966 0)
(-6.71749e-06 -0.000162716 0)
(-4.14002e-05 -9.58409e-05 0)
(-5.90207e-05 -3.69036e-05 0)
(-5.52599e-05 1.9936e-05 0)
(-3.06858e-05 8.16186e-05 0)
(9.33778e-06 0.000153469 0)
(5.55987e-05 0.000236663 0)
(9.67575e-05 0.000326169 0)
(0.000121643 0.000409423 0)
(0.00012192 0.000466027 0)
(9.56435e-05 0.000468612 0)
(5.25823e-05 0.000384808 0)
(1.45035e-05 0.000179658 0)
(8.7829e-06 -0.000221114 0)
(6.5996e-06 -0.000419189 0)
(-4.47627e-05 -0.000447093 0)
(-0.000155564 -0.000374266 0)
(-0.000318953 -0.000257841 0)
(-0.000515165 -0.000141053 0)
(-0.000717547 -5.17753e-05 0)
(-0.000897942 -2.37319e-06 0)
(-0.00103123 8.60431e-06 0)
(-0.00109895 -6.69628e-06 0)
(-0.00109179 -2.9534e-05 0)
(-0.00101075 -3.92407e-05 0)
(-0.000867066 -1.80405e-05 0)
(-0.000680652 4.44019e-05 0)
(-0.00047741 0.000147123 0)
(-0.000285383 0.000275101 0)
(-0.000130179 0.000398045 0)
(-2.95422e-05 0.000471082 0)
(1.26764e-05 0.000436795 0)
(9.8793e-06 0.000227425 0)
(-4.28119e-06 -0.000206116 0)
(-8.6295e-05 -0.000273237 0)
(-0.000316196 -0.000131996 0)
(-0.00067991 9.71512e-05 0)
(-0.00113981 0.000321817 0)
(-0.00164544 0.000477591 0)
(-0.0021394 0.000528647 0)
(-0.00256498 0.000466726 0)
(-0.00287357 0.000307452 0)
(-0.0030302 8.46062e-05 0)
(-0.00301735 -0.000156958 0)
(-0.00283671 -0.000369175 0)
(-0.002509 -0.000508846 0)
(-0.00207178 -0.000545359 0)
(-0.00157526 -0.000467465 0)
(-0.00107633 -0.000288471 0)
(-0.000630909 -4.91606e-05 0)
(-0.000286028 0.000182194 0)
(-7.3775e-05 0.000311633 0)
(-1.86626e-06 0.000220838 0)
(-3.11805e-05 -7.01671e-05 0)
(-0.000262456 0.000234473 0)
(-0.000813526 0.000749172 0)
(-0.00162159 0.0012777 0)
(-0.00259287 0.00167922 0)
(-0.00362472 0.0018641 0)
(-0.00460947 0.00179223 0)
(-0.00544489 0.00146961 0)
(-0.00604537 0.000941309 0)
(-0.0063502 0.000281677 0)
(-0.00632897 -0.000417201 0)
(-0.0059842 -0.00105806 0)
(-0.00535112 -0.00155134 0)
(-0.00449468 -0.00182771 0)
(-0.0035035 -0.00184935 0)
(-0.00248088 -0.00161918 0)
(-0.00153296 -0.00118681 0)
(-0.000757323 -0.000650364 0)
(-0.000238145 -0.000155728 0)
(-2.6169e-05 0.000102245 0)
(-8.13432e-05 0.00029037 0)
(-0.000572733 0.00138435 0)
(-0.00166664 0.00260941 0)
(-0.00321121 0.00366167 0)
(-0.00501701 0.00433757 0)
(-0.00689746 0.00452116 0)
(-0.00866697 0.0041775 0)
(-0.0101542 0.00334483 0)
(-0.0112181 0.00212217 0)
(-0.0117594 0.00065359 0)
(-0.0117283 -0.000889601 0)
(-0.0111278 -0.00232789 0)
(-0.0100139 -0.0034932 0)
(-0.00849176 -0.00424819 0)
(-0.00670779 -0.00450446 0)
(-0.00483666 -0.00423814 0)
(-0.00306377 -0.00350125 0)
(-0.00156964 -0.00242703 0)
(-0.000528719 -0.00123245 0)
(-7.16332e-05 -0.000224693 0)
(-0.000168619 0.00104065 0)
(-0.0010889 0.00360939 0)
(-0.00305458 0.00607349 0)
(-0.00576153 0.00798499 0)
(-0.00886576 0.00906617 0)
(-0.0120523 0.00918115 0)
(-0.0150205 0.00831981 0)
(-0.0174993 0.00658236 0)
(-0.0192684 0.00415901 0)
(-0.0201738 0.001306 0)
(-0.0201369 -0.00168024 0)
(-0.0191599 -0.00449043 0)
(-0.0173259 -0.00683069 0)
(-0.0147959 -0.00845124 0)
(-0.0117982 -0.00917431 0)
(-0.00861232 -0.00891985 0)
(-0.00554372 -0.00772601 0)
(-0.00290357 -0.00576165 0)
(-0.00101596 -0.00333579 0)
(-0.000151214 -0.000914611 0)
(-0.000312088 0.00243098 0)
(-0.00190564 0.00754647 0)
(-0.0052069 0.0120415 0)
(-0.00966483 0.0152902 0)
(-0.0146977 0.0169403 0)
(-0.0198032 0.0168579 0)
(-0.0245202 0.0150942 0)
(-0.0284409 0.011858 0)
(-0.0312388 0.00748397 0)
(-0.0326856 0.00239873 0)
(-0.0326624 -0.00291459 0)
(-0.0311659 -0.00795257 0)
(-0.0283114 -0.0122299 0)
(-0.0243297 -0.0153193 0)
(-0.0195587 -0.0168933 0)
(-0.0144234 -0.0167647 0)
(-0.00940293 -0.0149229 0)
(-0.00500699 -0.0115597 0)
(-0.0017991 -0.00709361 0)
(-0.000283861 -0.00220626 0)
(-0.000536348 0.0048216 0)
(-0.00313835 0.0140839 0)
(-0.0083918 0.02174 0)
(-0.0153639 0.0269696 0)
(-0.0231234 0.0293724 0)
(-0.0309095 0.0288672 0)
(-0.0380496 0.0256299 0)
(-0.0439634 0.0200473 0)
(-0.0481918 0.0126703 0)
(-0.0504136 0.00416916 0)
(-0.0504561 -0.0047104 0)
(-0.0483015 -0.013191 0)
(-0.044094 -0.0205109 0)
(-0.038142 -0.0259756 0)
(-0.0309147 -0.0290168 0)
(-0.0230244 -0.0292548 0)
(-0.0151884 -0.0265597 0)
(-0.00820661 -0.0211046 0)
(-0.00301406 -0.0134178 0)
(-0.000496895 -0.00445632 0)
(-0.000870844 0.00870296 0)
(-0.00491389 0.0243881 0)
(-0.012883 0.0367316 0)
(-0.0232786 0.0447478 0)
(-0.0346787 0.048069 0)
(-0.0459868 0.0467684 0)
(-0.0562766 0.041252 0)
(-0.0647719 0.0321834 0)
(-0.0708691 0.0204194 0)
(-0.0741455 0.00695611 0)
(-0.0743628 -0.00711785 0)
(-0.0714732 -0.0206655 0)
(-0.065631 -0.0325507 0)
(-0.0572073 -0.0416977 0)
(-0.0468027 -0.0471668 0)
(-0.0352422 -0.0482459 0)
(-0.0235444 -0.0445527 0)
(-0.0129126 -0.0361362 0)
(-0.00484278 -0.0235874 0)
(-0.000829773 -0.00818347 0)
(-0.00134897 0.0147041 0)
(-0.00735519 0.039884 0)
(-0.0189006 0.058837 0)
(-0.0336713 0.070536 0)
(-0.0495868 0.0748291 0)
(-0.0651507 0.0721361 0)
(-0.0791742 0.0632627 0)
(-0.0907042 0.0492847 0)
(-0.0990203 0.0314654 0)
(-0.103619 0.0112004 0)
(-0.104198 -0.0100178 0)
(-0.100658 -0.0306276 0)
(-0.093118 -0.0490314 0)
(-0.0819524 -0.0636471 0)
(-0.0678366 -0.0729912 0)
(-0.0517802 -0.0758023 0)
(-0.0351282 -0.0712017 0)
(-0.0196044 -0.0588812 0)
(-0.00752416 -0.039331 0)
(-0.00134075 -0.0141259 0)
(-0.00201195 0.023588 0)
(-0.0105723 0.0621663 0)
(-0.0265371 0.0899059 0)
(-0.0464423 0.106053 0)
(-0.0673691 0.11105 0)
(-0.0874109 0.106013 0)
(-0.105195 0.092415 0)
(-0.119704 0.0719206 0)
(-0.130214 0.0462934 0)
(-0.136226 0.0173591 0)
(-0.137414 -0.012992 0)
(-0.133607 -0.0427835 0)
(-0.124809 -0.069934 0)
(-0.111266 -0.0922644 0)
(-0.0935637 -0.107556 0)
(-0.0727402 -0.113689 0)
(-0.0503747 -0.108867 0)
(-0.0287666 -0.0919458 0)
(-0.0113671 -0.0628816 0)
(-0.00212053 -0.0233217 0)
(-0.0029362 0.0362738 0)
(-0.0147033 0.0928489 0)
(-0.0357005 0.131356 0)
(-0.0608425 0.152042 0)
(-0.0862283 0.156715 0)
(-0.109685 0.147797 0)
(-0.129922 0.127837 0)
(-0.146149 0.0992999 0)
(-0.157901 0.0644943 0)
(-0.164883 0.0256023 0)
(-0.166858 -0.0152363 0)
(-0.163593 -0.0558039 0)
(-0.154873 -0.0936785 0)
(-0.140594 -0.12613 0)
(-0.120927 -0.150082 0)
(-0.0965488 -0.162187 0)
(-0.0689059 -0.159081 0)
(-0.040693 -0.137867 0)
(-0.016765 -0.0969455 0)
(-0.00332431 -0.0372404 0)
(-0.004329 0.0539865 0)
(-0.0200837 0.13335 0)
(-0.0460726 0.183279 0)
(-0.0749429 0.20675 0)
(-0.101906 0.208472 0)
(-0.125067 0.193206 0)
(-0.143847 0.16512 0)
(-0.158248 0.127649 0)
(-0.168515 0.0835589 0)
(-0.174892 0.0351167 0)
(-0.177438 -0.0156716 0)
(-0.175941 -0.0667901 0)
(-0.169895 -0.115918 0)
(-0.158586 -0.160134 0)
(-0.141298 -0.195648 0)
(-0.117648 -0.217655 0)
(-0.0880825 -0.220407 0)
(-0.0548941 -0.197722 0)
(-0.0241622 -0.144257 0)
(-0.00523724 -0.0579351 0)
(-0.00671036 0.0788233 0)
(-0.0273708 0.184314 0)
(-0.0563992 0.242267 0)
(-0.0837062 0.262786 0)
(-0.104666 0.256257 0)
(-0.11912 0.231139 0)
(-0.128376 0.193659 0)
(-0.134022 0.148112 0)
(-0.137528 0.0973128 0)
(-0.140007 0.0430545 0)
(-0.142049 -0.0134428 0)
(-0.143622 -0.0710951 0)
(-0.144013 -0.128488 0)
(-0.141824 -0.183347 0)
(-0.135088 -0.231919 0)
(-0.121534 -0.26832 0)
(-0.0991865 -0.283987 0)
(-0.0679884 -0.267596 0)
(-0.0335336 -0.206128 0)
(-0.00832389 -0.0884119 0)
(-0.0110098 0.118152 0)
(-0.0361388 0.245847 0)
(-0.0590528 0.296799 0)
(-0.0701597 0.300728 0)
(-0.0692085 0.277432 0)
(-0.0603415 0.23933 0)
(-0.0478639 0.193877 0)
(-0.0352573 0.145132 0)
(-0.0251425 0.0949338 0)
(-0.0193336 0.0437644 0)
(-0.0188844 -0.00865296 0)
(-0.0240872 -0.0628904 0)
(-0.0343973 -0.119343 0)
(-0.0482753 -0.177623 0)
(-0.0629835 -0.235653 0)
(-0.0744407 -0.288345 0)
(-0.0773637 -0.325876 0)
(-0.0666101 -0.331754 0)
(-0.0418006 -0.280556 0)
(-0.0129526 -0.13638 0)
(-0.0139841 0.183519 0)
(-0.032902 0.302975 0)
(-0.0154563 0.310289 0)
(0.024935 0.276828 0)
(0.0733633 0.230853 0)
(0.121545 0.183654 0)
(0.164846 0.139666 0)
(0.200371 0.0999503 0)
(0.226343 0.0638962 0)
(0.241696 0.0301012 0)
(0.245746 -0.00324331 0)
(0.238042 -0.0382101 0)
(0.218354 -0.0770428 0)
(0.186884 -0.121894 0)
(0.14475 -0.174158 0)
(0.0946123 -0.232986 0)
(0.0414457 -0.2926 0)
(-0.00551388 -0.337801 0)
(-0.029201 -0.334019 0)
(-0.0131264 -0.202681 0)
(0.111725 0.111737 0)
(0.169585 0.163761 0)
(0.284635 0.152279 0)
(0.400933 0.12457 0)
(0.49395 0.0958254 0)
(0.564717 0.0706733 0)
(0.617572 0.0501883 0)
(0.655577 0.0339662 0)
(0.68094 0.0210194 0)
(0.695215 0.0101936 0)
(0.699208 0.000290162 0)
(0.692863 -0.00996315 0)
(0.675186 -0.022013 0)
(0.644174 -0.0375312 0)
(0.596808 -0.0583313 0)
(0.528937 -0.0858541 0)
(0.434757 -0.119792 0)
(0.31119 -0.15498 0)
(0.183542 -0.17298 0)
(0.115384 -0.119798 0)
)
;

boundaryField
{
    movingWall
    {
        type            fixedValue;
        value           uniform (1 0 0);
    }
    fixedWalls
    {
        type            noSlip;
    }
    frontAndBack
    {
        type            empty;
    }
}


// ************************************************************************* //
