/*--------------------------------*- C++ -*----------------------------------*\
  =========                 |
  \\      /  F ield         | OpenFOAM: The Open Source CFD Toolbox
   \\    /   O peration     | Website:  https://openfoam.org
    \\  /    A nd           | Version:  7
     \\/     M anipulation  |
\*---------------------------------------------------------------------------*/
FoamFile
{
    version     2.0;
    format      ascii;
    class       volScalarField;
    location    "0.3";
    object      p;
}
// * * * * * * * * * * * * * * * * * * * * * * * * * * * * * * * * * * * * * //

dimensions      [0 2 -2 0 0 0 0];

internalField   nonuniform List<scalar> 
400
(
8.95425e-09
-0.000108845
-0.000150717
-0.000106491
3.19814e-05
0.000265949
0.000594403
0.00101607
0.00152798
0.00212253
0.00278423
0.00348703
0.00419251
0.00485131
0.00540814
0.00581225
0.00603252
0.00607378
0.00598289
0.00582112
0.000108573
-3.34926e-06
-2.28996e-05
4.12215e-05
0.000185582
0.000413032
0.000725422
0.00112333
0.00160487
0.00216325
0.00278408
0.00344309
0.00410488
0.00472338
0.00524753
0.0056312
0.00584792
0.00590454
0.00583472
0.00567235
0.000146753
3.53806e-06
-1.81822e-05
4.97417e-05
0.000192485
0.00041226
0.000712445
0.00109569
0.00156252
0.00210868
0.00272225
0.00338087
0.0040493
0.00467974
0.0052166
0.00560759
0.0058215
0.00586449
0.00576806
0.00555882
7.80328e-05
-0.000100872
-0.000134302
-7.12205e-05
6.46847e-05
0.000274926
0.000564376
0.000938333
0.00140079
0.00195138
0.00258173
0.00327171
0.00398546
0.00466943
0.00525689
0.00568074
0.00589714
0.0059098
0.00575885
0.00548156
-0.000127018
-0.000335976
-0.000382618
-0.000328294
-0.000202767
-4.34842e-06
0.000273949
0.000640838
0.00110485
0.00167087
0.00233561
0.0030823
0.00387512
0.00465223
0.00532986
0.00581654
0.00604583
0.00601534
0.00578422
0.00541945
-0.000487132
-0.000721969
-0.000782811
-0.000740538
-0.000629286
-0.00044657
-0.000182743
0.000175066
0.000641102
0.00122732
0.00193781
0.00276136
0.00366742
0.00458345
0.00540308
0.00599742
0.00626035
0.00617292
0.00582101
0.00532364
-0.00101378
-0.00127334
-0.00135041
-0.00132444
-0.00123349
-0.00107424
-0.000834225
-0.000495954
-3.8427e-05
0.000559468
0.00131245
0.00221807
0.00326677
0.00437186
0.0054036
0.00617871
0.00652122
0.00636987
0.00583496
0.00511146
-0.00171548
-0.00200108
-0.00209772
-0.00209406
-0.00203292
-0.00191085
-0.00171317
-0.00141814
-0.000997824
-0.000420482
0.000345857
0.00132545
0.0024995
0.00382908
0.00516056
0.00623778
0.00676372
0.00657732
0.00578197
0.00465424
-0.00259957
-0.00291442
-0.00303497
-0.0030613
-0.00304312
-0.00297874
-0.00285322
-0.00264275
-0.00231473
-0.00182843
-0.00113588
-0.000187917
0.00104361
0.00257604
0.00428214
0.00584638
0.00678283
0.00670939
0.00561171
0.0037661
-0.00367268
-0.00402132
-0.00416982
-0.00423364
-0.00427336
-0.0042925
-0.00427975
-0.00421437
-0.00406593
-0.00379361
-0.0033434
-0.00264209
-0.00159084
-8.30578e-05
0.00193295
0.00418512
0.00597524
0.00647992
0.00523708
0.00222986
-0.00494151
-0.00532931
-0.00550654
-0.00561082
-0.00572025
-0.00584882
-0.00599504
-0.00615008
-0.00629936
-0.00642297
-0.00649121
-0.00644229
-0.00612292
-0.00523181
-0.00336588
-0.000418527
0.00289739
0.00505548
0.00438106
-1.30162e-05
-0.00641558
-0.0068478
-0.00704573
-0.00718113
-0.00736006
-0.00761391
-0.00795845
-0.00840863
-0.00898562
-0.00972359
-0.0106709
-0.0118546
-0.0131374
-0.0139627
-0.0133215
-0.0102086
-0.00478427
0.000736364
0.00239774
-0.00235093
-0.00811461
-0.00859385
-0.00878568
-0.00891809
-0.0091413
-0.00951087
-0.0100659
-0.0108558
-0.0119578
-0.0134966
-0.0156586
-0.0186479
-0.0224399
-0.0262541
-0.0281905
-0.0260611
-0.0186889
-0.00827258
-0.00137481
-0.00315227
-0.0100853
-0.010604
-0.0107258
-0.0107784
-0.0109803
-0.0114135
-0.0121397
-0.0132458
-0.0148741
-0.0172583
-0.0207513
-0.0257656
-0.0324245
-0.0398111
-0.0452555
-0.0452517
-0.0369581
-0.0214585
-0.00663539
-0.00107689
-0.0124372
-0.0129561
-0.0128714
-0.0127011
-0.0127633
-0.0131552
-0.0139469
-0.0152522
-0.0172691
-0.0203243
-0.0249041
-0.031559
-0.0404675
-0.0506795
-0.0593327
-0.0615527
-0.0534302
-0.0343
-0.011253
0.00406813
-0.0154252
-0.0158109
-0.0152334
-0.0146038
-0.0143554
-0.0145564
-0.0152542
-0.0165677
-0.0187264
-0.0221108
-0.0272631
-0.0347514
-0.0446626
-0.056009
-0.0659962
-0.0692977
-0.0612819
-0.0399371
-0.0105363
0.0154558
-0.0196908
-0.0194787
-0.0177958
-0.0163585
-0.0156043
-0.0154605
-0.0159054
-0.017039
-0.0191012
-0.0224859
-0.0277259
-0.0353203
-0.0452319
-0.0562104
-0.0651654
-0.0671537
-0.0571773
-0.0321944
0.00436748
0.0454739
-0.0269128
-0.0243919
-0.0204068
-0.0177957
-0.0163768
-0.0157806
-0.0158817
-0.0167463
-0.0186093
-0.0218486
-0.0269361
-0.034191
-0.0433497
-0.052825
-0.0592276
-0.0571904
-0.0409502
-0.00603974
0.0460217
0.115926
-0.0404304
-0.0311355
-0.0229886
-0.0183016
-0.0159121
-0.0148373
-0.0146868
-0.0154371
-0.0172676
-0.0204864
-0.0254554
-0.0322692
-0.0403905
-0.0478063
-0.05069
-0.0423663
-0.0153173
0.0389491
0.123275
0.239594
-0.0942129
-0.0341033
-0.014741
-0.0107521
-0.00957257
-0.00916595
-0.00965325
-0.011097
-0.0135799
-0.0173089
-0.0225517
-0.0291988
-0.0364872
-0.0420224
-0.0418266
-0.0286388
0.00822145
0.0848205
0.212036
0.392386
)
;

boundaryField
{
    movingWall
    {
        type            zeroGradient;
    }
    fixedWalls
    {
        type            zeroGradient;
    }
    frontAndBack
    {
        type            empty;
    }
}


// ************************************************************************* //
