/*--------------------------------*- C++ -*----------------------------------*\
  =========                 |
  \\      /  F ield         | OpenFOAM: The Open Source CFD Toolbox
   \\    /   O peration     | Website:  https://openfoam.org
    \\  /    A nd           | Version:  7
     \\/     M anipulation  |
\*---------------------------------------------------------------------------*/
FoamFile
{
    version     2.0;
    format      ascii;
    class       surfaceScalarField;
    location    "0.3";
    object      phi;
}
// * * * * * * * * * * * * * * * * * * * * * * * * * * * * * * * * * * * * * //

dimensions      [0 3 -1 0 0 0 0];

internalField   nonuniform List<scalar> 
760
(
-7.34029e-09
7.33961e-09
-4.93544e-08
4.20142e-08
-1.15063e-07
6.57089e-08
-1.91182e-07
7.61184e-08
-2.69572e-07
7.83907e-08
-3.45667e-07
7.60943e-08
-4.16447e-07
7.07808e-08
-4.79066e-07
6.26186e-08
-5.30108e-07
5.10419e-08
-5.65391e-07
3.52834e-08
-5.80194e-07
1.48029e-08
-5.69853e-07
-1.03412e-08
-5.30906e-07
-3.89464e-08
-4.62586e-07
-6.83202e-08
-3.68564e-07
-9.40217e-08
-2.58342e-07
-1.10222e-07
-1.47493e-07
-1.10849e-07
-5.60933e-08
-9.13997e-08
-4.64956e-09
-5.14439e-08
-4.64977e-09
-4.4342e-08
5.16816e-08
-1.5631e-07
1.53982e-07
-3.09909e-07
2.19309e-07
-4.83188e-07
2.49397e-07
-6.60436e-07
2.55639e-07
-8.31146e-07
2.46804e-07
-9.87605e-07
2.2724e-07
-1.12281e-06
1.9782e-07
-1.22922e-06
1.57454e-07
-1.29844e-06
1.04501e-07
-1.32162e-06
3.7988e-08
-1.29069e-06
-4.12769e-08
-1.20016e-06
-1.29473e-07
-1.05009e-06
-2.1839e-07
-8.48854e-07
-2.95257e-07
-6.15439e-07
-3.43637e-07
-3.79454e-07
-3.46834e-07
-1.77242e-07
-2.93612e-07
-4.33126e-08
-1.85373e-07
-4.79626e-08
-7.50287e-08
1.2671e-07
-2.4088e-07
3.19833e-07
-4.57853e-07
4.36281e-07
-6.97541e-07
4.89085e-07
-9.40169e-07
4.98267e-07
-1.17217e-06
4.78809e-07
-1.38332e-06
4.38387e-07
-1.56431e-06
3.78814e-07
-1.70539e-06
2.98526e-07
-1.79584e-06
1.94954e-07
-1.82449e-06
6.66422e-08
-1.78097e-06
-8.48026e-08
-1.65815e-06
-2.52285e-07
-1.45567e-06
-4.20879e-07
-1.18384e-06
-5.6708e-07
-8.67096e-07
-6.60384e-07
-5.44295e-07
-6.69635e-07
-2.63575e-07
-5.74332e-07
-7.1092e-08
-3.77857e-07
-1.19055e-07
-9.57678e-08
2.22478e-07
-3.01377e-07
5.25443e-07
-5.65007e-07
6.99911e-07
-8.52514e-07
7.76592e-07
-1.14152e-06
7.87272e-07
-1.41716e-06
7.54451e-07
-1.66834e-06
6.89568e-07
-1.88491e-06
5.95387e-07
-2.056e-06
4.69613e-07
-2.1693e-06
3.08256e-07
-2.21134e-06
1.08677e-07
-2.16862e-06
-1.27521e-07
-2.03033e-06
-3.90579e-07
-1.79285e-06
-6.58353e-07
-1.46554e-06
-8.94393e-07
-1.07648e-06
-1.04945e-06
-6.74715e-07
-1.0714e-06
-3.23857e-07
-9.2519e-07
-8.5246e-08
-6.16468e-07
-2.04301e-07
-1.10008e-07
3.32486e-07
-3.45258e-07
7.60693e-07
-6.44612e-07
9.99265e-07
-9.69182e-07
1.10116e-06
-1.2949e-06
1.11299e-06
-1.60673e-06
1.06627e-06
-1.89385e-06
9.76688e-07
-2.14631e-06
8.47852e-07
-2.35289e-06
6.76189e-07
-2.4999e-06
4.55264e-07
-2.57095e-06
1.7973e-07
-2.54778e-06
-1.5069e-07
-2.41254e-06
-5.25815e-07
-2.15408e-06
-9.16815e-07
-1.77629e-06
-1.27219e-06
-1.30878e-06
-1.51696e-06
-8.13898e-07
-1.56628e-06
-3.79941e-07
-1.35915e-06
-9.28993e-08
-9.03509e-07
-2.972e-07
-1.20904e-07
4.5339e-07
-3.80171e-07
1.01996e-06
-7.09421e-07
1.32851e-06
-1.06597e-06
1.45771e-06
-1.42483e-06
1.47185e-06
-1.77164e-06
1.41309e-06
-2.09693e-06
1.30197e-06
-2.39194e-06
1.14287e-06
-2.64599e-06
9.30233e-07
-2.84444e-06
6.53719e-07
-2.96759e-06
3.02873e-07
-2.99093e-06
-1.27348e-07
-2.88499e-06
-6.31753e-07
-2.62475e-06
-1.17706e-06
-2.20052e-06
-1.69641e-06
-1.63743e-06
-2.08005e-06
-1.01357e-06
-2.19014e-06
-4.57313e-07
-1.91541e-06
-1.00153e-07
-1.26067e-06
-3.97353e-07
-1.30604e-07
5.83994e-07
-4.11756e-07
1.30111e-06
-7.68724e-07
1.68548e-06
-1.15563e-06
1.84462e-06
-1.54725e-06
1.86348e-06
-1.93083e-06
1.79667e-06
-2.29933e-06
1.67047e-06
-2.64663e-06
1.49017e-06
-2.96408e-06
1.24768e-06
-3.23756e-06
9.27195e-07
-3.44446e-06
5.09772e-07
-3.5543e-06
-1.75075e-08
-3.51998e-06
-6.66072e-07
-3.29419e-06
-1.40285e-06
-2.83894e-06
-2.15166e-06
-2.16022e-06
-2.75877e-06
-1.34859e-06
-3.00176e-06
-5.93835e-07
-2.67016e-06
-1.14614e-07
-1.73989e-06
-5.11967e-07
-1.40378e-07
7.24372e-07
-4.43468e-07
1.6042e-06
-8.27992e-07
2.07001e-06
-1.24505e-06
2.26167e-06
-1.66975e-06
2.28818e-06
-2.09195e-06
2.21886e-06
-2.50852e-06
2.08704e-06
-2.91796e-06
1.89962e-06
-3.3163e-06
1.64603e-06
-3.69308e-06
1.30397e-06
-4.02653e-06
8.43229e-07
-4.27617e-06
2.32132e-07
-4.38258e-06
-5.59662e-07
-4.25822e-06
-1.52721e-06
-3.81516e-06
-2.59472e-06
-3.01254e-06
-3.56139e-06
-1.93621e-06
-4.07809e-06
-8.57086e-07
-3.74929e-06
-1.51911e-07
-2.44507e-06
-6.63878e-07
-1.50983e-07
8.75355e-07
-4.77303e-07
1.93052e-06
-8.89938e-07
2.48264e-06
-1.33663e-06
2.70837e-06
-1.79331e-06
2.74486e-06
-2.25351e-06
2.67906e-06
-2.71975e-06
2.55328e-06
-3.19771e-06
2.37758e-06
-3.69184e-06
2.14015e-06
-4.20028e-06
1.81241e-06
-4.70723e-06
1.35018e-06
-5.16979e-06
6.94693e-07
-5.50998e-06
-2.19471e-07
-5.59005e-06
-1.44714e-06
-5.24473e-06
-2.94004e-06
-4.34642e-06
-4.45969e-06
-2.93716e-06
-5.48734e-06
-1.36339e-06
-5.32307e-06
-2.4703e-07
-3.56142e-06
-9.10907e-07
-1.63186e-07
1.03854e-06
-5.14998e-07
2.28233e-06
-9.56265e-07
2.92391e-06
-1.43052e-06
3.18262e-06
-1.91484e-06
3.22918e-06
-2.40746e-06
3.17167e-06
-2.91817e-06
3.064e-06
-3.46254e-06
2.92194e-06
-4.05762e-06
2.73523e-06
-4.71628e-06
2.47107e-06
-5.43621e-06
2.07011e-06
-6.17958e-06
1.43806e-06
-6.84731e-06
4.48261e-07
-7.25203e-06
-1.04243e-06
-7.12914e-06
-3.06293e-06
-6.23113e-06
-5.35771e-06
-4.49741e-06
-7.22105e-06
-2.27944e-06
-7.54104e-06
-4.75228e-07
-5.36563e-06
-1.38614e-06
-1.78438e-07
1.21698e-06
-5.59511e-07
2.66341e-06
-1.02975e-06
3.39415e-06
-1.52708e-06
3.67995e-06
-2.02989e-06
3.732e-06
-2.54183e-06
3.68361e-06
-3.0809e-06
3.60306e-06
-3.67401e-06
3.51506e-06
-4.35356e-06
3.41478e-06
-5.15124e-06
3.26875e-06
-6.08367e-06
3.00254e-06
-7.12468e-06
2.47907e-06
-8.15967e-06
1.48325e-06
-8.96159e-06
-2.405e-07
-9.18579e-06
-2.83874e-06
-8.46955e-06
-6.07394e-06
-6.59425e-06
-9.09636e-06
-3.75685e-06
-1.03784e-05
-9.76773e-07
-8.14571e-06
-2.36291e-06
-1.998e-07
1.41678e-06
-6.16909e-07
3.08052e-06
-1.11667e-06
3.89391e-06
-1.62956e-06
4.19284e-06
-2.13567e-06
4.23811e-06
-2.64412e-06
4.19206e-06
-3.1803e-06
4.13924e-06
-3.7809e-06
4.11566e-06
-4.49158e-06
4.12546e-06
-5.36087e-06
4.13803e-06
-6.42302e-06
4.0647e-06
-7.66452e-06
3.72057e-06
-8.97774e-06
2.79647e-06
-1.01196e-05
9.01393e-07
-1.0744e-05
-2.21434e-06
-1.0441e-05
-6.37699e-06
-8.82092e-06
-1.07164e-05
-5.73001e-06
-1.34694e-05
-1.91163e-06
-1.19641e-05
-4.27454e-06
-2.33439e-07
1.65022e-06
-6.98947e-07
3.54602e-06
-1.22957e-06
4.42454e-06
-1.74699e-06
4.71026e-06
-2.23427e-06
4.72539e-06
-2.70563e-06
4.66341e-06
-3.19051e-06
4.62412e-06
-3.72914e-06
4.65429e-06
-4.37153e-06
4.76785e-06
-5.17229e-06
4.9388e-06
-6.17438e-06
5.06678e-06
-7.37838e-06
4.92457e-06
-8.70683e-06
4.12492e-06
-9.98325e-06
2.17781e-06
-1.09128e-05
-1.28479e-06
-1.11923e-05
-6.0975e-06
-1.03014e-05
-1.16073e-05
-7.64105e-06
-1.61297e-05
-3.23635e-06
-1.63688e-05
-7.51089e-06
-2.91291e-07
1.94151e-06
-8.26906e-07
4.08164e-06
-1.39042e-06
4.98805e-06
-1.89622e-06
5.21606e-06
-2.33488e-06
5.16404e-06
-2.7256e-06
5.05414e-06
-3.09665e-06
4.99517e-06
-3.48193e-06
5.03958e-06
-3.92195e-06
5.20786e-06
-4.46178e-06
5.47863e-06
-5.14224e-06
5.74724e-06
-5.98315e-06
5.76549e-06
-6.96752e-06
5.10929e-06
-8.05552e-06
3.26581e-06
-9.07936e-06
-2.60952e-07
-9.92676e-06
-5.2501e-06
-1.00426e-05
-1.14915e-05
-8.50806e-06
-1.76642e-05
-4.47781e-06
-2.0399e-05
-1.19887e-05
-3.96275e-07
2.33778e-06
-1.03771e-06
4.72307e-06
-1.63305e-06
5.58339e-06
-2.10069e-06
5.6837e-06
-2.4504e-06
5.51376e-06
-2.70845e-06
5.31219e-06
-2.89742e-06
5.18413e-06
-3.0365e-06
5.17865e-06
-3.14556e-06
5.31692e-06
-3.24863e-06
5.5817e-06
-3.37745e-06
5.87606e-06
-3.57875e-06
5.96679e-06
-3.91736e-06
5.44789e-06
-4.47458e-06
3.82303e-06
-5.41705e-06
6.81516e-07
-6.57053e-06
-4.09662e-06
-7.63637e-06
-1.04256e-05
-7.60898e-06
-1.76916e-05
-4.98016e-06
-2.30279e-05
-1.69689e-05
-5.94114e-07
2.9319e-06
-1.3945e-06
5.52346e-06
-2.0014e-06
6.19029e-06
-2.37661e-06
6.05891e-06
-2.57289e-06
5.71004e-06
-2.62955e-06
5.36885e-06
-2.56449e-06
5.11907e-06
-2.38245e-06
4.99662e-06
-2.08319e-06
5.01767e-06
-1.67099e-06
5.1695e-06
-1.16764e-06
5.37271e-06
-6.47339e-07
5.44649e-06
-2.60831e-07
5.06139e-06
-2.16117e-07
3.77832e-06
-7.16827e-07
1.18223e-06
-1.86688e-06
-2.94656e-06
-3.55856e-06
-8.73395e-06
-4.98395e-06
-1.62662e-05
-4.27869e-06
-2.37331e-05
-2.12476e-05
-9.88155e-07
3.92005e-06
-2.00288e-06
6.53818e-06
-2.52242e-06
6.70983e-06
-2.66159e-06
6.19808e-06
-2.55585e-06
5.6043e-06
-2.27292e-06
5.08593e-06
-1.83782e-06
4.68397e-06
-1.25289e-06
4.41168e-06
-5.09082e-07
4.27386e-06
4.03181e-07
4.25724e-06
1.46238e-06
4.31351e-06
2.6033e-06
4.30557e-06
3.6588e-06
4.00589e-06
4.35614e-06
3.08098e-06
4.34808e-06
1.19029e-06
3.40933e-06
-2.00781e-06
1.49934e-06
-6.82396e-06
-1.02414e-06
-1.37428e-05
-2.43147e-06
-2.23258e-05
-2.3679e-05
-1.87177e-06
5.79183e-06
-2.97338e-06
7.63979e-06
-2.94237e-06
6.67882e-06
-2.35185e-06
5.60756e-06
-1.51513e-06
4.76757e-06
-5.51704e-07
4.1225e-06
5.03764e-07
3.62851e-06
1.6462e-06
3.26925e-06
2.88702e-06
3.03303e-06
4.24446e-06
2.8998e-06
5.72338e-06
2.83459e-06
7.27544e-06
2.75351e-06
8.75641e-06
2.52492e-06
9.90462e-06
1.93276e-06
1.03446e-05
7.5026e-07
9.71282e-06
-1.37598e-06
7.72538e-06
-4.83652e-06
4.34402e-06
-1.03614e-05
9.6337e-07
-1.89451e-05
-2.27157e-05
-3.80235e-06
9.59418e-06
-2.63545e-06
6.47289e-06
-7.7361e-08
4.12073e-06
2.34704e-06
3.18316e-06
4.5316e-06
2.58301e-06
6.54037e-06
2.11373e-06
8.4088e-06
1.76008e-06
1.01696e-05
1.50845e-06
1.18639e-05
1.33875e-06
1.35352e-05
1.22852e-06
1.5212e-05
1.15774e-06
1.68816e-05
1.0839e-06
1.84537e-05
9.52796e-07
1.97089e-05
6.77582e-07
2.02568e-05
2.02373e-07
1.96789e-05
-7.98093e-07
1.739e-05
-2.54764e-06
1.27504e-05
-5.72171e-06
5.69397e-06
-1.18888e-05
-1.70217e-05
9.59418e-06
1.60671e-05
2.01878e-05
2.3371e-05
2.5954e-05
2.80677e-05
2.98278e-05
3.13362e-05
3.2675e-05
3.39035e-05
3.50612e-05
3.61451e-05
3.70979e-05
3.77755e-05
3.79779e-05
3.71798e-05
3.46322e-05
2.89104e-05
1.70217e-05
)
;

boundaryField
{
    movingWall
    {
        type            calculated;
        value           uniform 0;
    }
    fixedWalls
    {
        type            calculated;
        value           uniform 0;
    }
    frontAndBack
    {
        type            empty;
        value           nonuniform 0();
    }
}


// ************************************************************************* //
