/*--------------------------------*- C++ -*----------------------------------*\
  =========                 |
  \\      /  F ield         | OpenFOAM: The Open Source CFD Toolbox
   \\    /   O peration     | Website:  https://openfoam.org
    \\  /    A nd           | Version:  7
     \\/     M anipulation  |
\*---------------------------------------------------------------------------*/
FoamFile
{
    version     2.0;
    format      ascii;
    class       volVectorField;
    location    "0.3";
    object      U;
}
// * * * * * * * * * * * * * * * * * * * * * * * * * * * * * * * * * * * * * //

dimensions      [0 1 -1 0 0 0 0];

internalField   nonuniform List<vector> 
400
(
(1.75419e-05 -2.30838e-05 0)
(-0.000426019 0.000251799 0)
(-0.00157532 0.00044949 0)
(-0.00303905 0.00053422 0)
(-0.00460979 0.000554189 0)
(-0.0061713 0.000542573 0)
(-0.00765312 0.000512482 0)
(-0.00900005 0.000464225 0)
(-0.0101512 0.000391646 0)
(-0.0110307 0.000286795 0)
(-0.0115478 0.000143432 0)
(-0.0116057 -3.97099e-05 0)
(-0.0111188 -0.000255206 0)
(-0.0100392 -0.000482044 0)
(-0.00839105 -0.000684351 0)
(-0.00630387 -0.000813491 0)
(-0.00403114 -0.00081708 0)
(-0.00192847 -0.000653211 0)
(-0.000394914 -0.00031461 0)
(8.94393e-05 6.37826e-05 0)
(-0.000278243 0.000432906 0)
(-0.00172925 0.00165969 0)
(-0.00450742 0.00247836 0)
(-0.00788289 0.00285331 0)
(-0.0114499 0.00293836 0)
(-0.0149707 0.00285031 0)
(-0.0182758 0.0026437 0)
(-0.0212246 0.00232671 0)
(-0.0236751 0.00188214 0)
(-0.0254678 0.00128576 0)
(-0.0264267 0.000521308 0)
(-0.0263761 -0.000404867 0)
(-0.0251708 -0.00144789 0)
(-0.0227457 -0.0025096 0)
(-0.0191749 -0.00343278 0)
(-0.0147279 -0.00401352 0)
(-0.00989418 -0.00404242 0)
(-0.00533428 -0.00337214 0)
(-0.00180902 -0.00201084 0)
(-0.000202707 -0.000352965 0)
(-0.000530584 0.00168372 0)
(-0.00279123 0.00452091 0)
(-0.00678732 0.0062882 0)
(-0.0115005 0.00710331 0)
(-0.0164057 0.00726396 0)
(-0.0212072 0.00700001 0)
(-0.0256842 0.0064285 0)
(-0.029649 0.00557546 0)
(-0.0329154 0.0044149 0)
(-0.0352784 0.00290596 0)
(-0.0365154 0.00102525 0)
(-0.0364025 -0.00120138 0)
(-0.0347528 -0.0036647 0)
(-0.031476 -0.00614075 0)
(-0.0266572 -0.00827846 0)
(-0.0206367 -0.00962781 0)
(-0.0140495 -0.0097337 0)
(-0.00776635 -0.00829628 0)
(-0.00281437 -0.00536395 0)
(-0.000404852 -0.00157034 0)
(-0.000692664 0.00342554 0)
(-0.00353338 0.00830566 0)
(-0.00843547 0.0111819 0)
(-0.0141229 0.0124702 0)
(-0.0199811 0.0126738 0)
(-0.0256886 0.0121601 0)
(-0.031007 0.0111181 0)
(-0.0357332 0.00959378 0)
(-0.039662 0.00755043 0)
(-0.0425626 0.00492591 0)
(-0.0441737 0.00168339 0)
(-0.044217 -0.0021374 0)
(-0.0424349 -0.00636361 0)
(-0.0386622 -0.0106274 0)
(-0.0329334 -0.01434 0)
(-0.0256062 -0.0167299 0)
(-0.017449 -0.0170029 0)
(-0.00959425 -0.014636 0)
(-0.00341196 -0.00971502 0)
(-0.000463049 -0.00316572 0)
(-0.000796586 0.00549955 0)
(-0.00405582 0.0127472 0)
(-0.00964708 0.0168489 0)
(-0.0160849 0.0186265 0)
(-0.0226862 0.0188506 0)
(-0.0291227 0.018054 0)
(-0.0351616 0.0165056 0)
(-0.0406067 0.0142697 0)
(-0.0452534 0.011291 0)
(-0.0488553 0.00747083 0)
(-0.0511103 0.0027372 0)
(-0.0516647 -0.00288244 0)
(-0.05014 -0.00917717 0)
(-0.0462175 -0.0156347 0)
(-0.0397866 -0.0213845 0)
(-0.0311441 -0.0252221 0)
(-0.0211898 -0.0258457 0)
(-0.0114474 -0.0223642 0)
(-0.00384706 -0.0149121 0)
(-0.000425759 -0.0049445 0)
(-0.000871874 0.00781594 0)
(-0.00446168 0.0177061 0)
(-0.0106214 0.0231492 0)
(-0.0176951 0.025449 0)
(-0.0249487 0.0257018 0)
(-0.0320618 0.0246362 0)
(-0.0388266 0.0226114 0)
(-0.045075 0.0197079 0)
(-0.0506228 0.015838 0)
(-0.0552228 0.0108417 0)
(-0.0585345 0.00457255 0)
(-0.0601129 -0.00300577 0)
(-0.0594011 -0.0117027 0)
(-0.0558164 -0.0208928 0)
(-0.0489519 -0.0293887 0)
(-0.0388809 -0.0353894 0)
(-0.0265674 -0.0367812 0)
(-0.0140939 -0.0319898 0)
(-0.00437452 -0.0211806 0)
(-0.000316377 -0.00683791 0)
(-0.000937362 0.0103323 0)
(-0.00482487 0.0231127 0)
(-0.0115065 0.030014 0)
(-0.0191749 0.032885 0)
(-0.0270571 0.033204 0)
(-0.0348557 0.0319293 0)
(-0.0424085 0.0295247 0)
(-0.0496014 0.0260863 0)
(-0.0563002 0.0214803 0)
(-0.062288 0.015453 0)
(-0.0672104 0.00772497 0)
(-0.0705393 -0.00189055 0)
(-0.0714917 -0.0132946 0)
(-0.0690844 -0.0258964 0)
(-0.0623715 -0.0382047 0)
(-0.0508818 -0.0476283 0)
(-0.0354025 -0.0507338 0)
(-0.0186906 -0.0445927 0)
(-0.00535426 -0.0291836 0)
(-0.000142398 -0.00888964 0)
(-0.00100365 0.0130394 0)
(-0.00519034 0.0289504 0)
(-0.0123928 0.0374256 0)
(-0.0206505 0.0409228 0)
(-0.0291585 0.0413645 0)
(-0.0376586 0.0399785 0)
(-0.0460585 0.0373543 0)
(-0.054332 0.0336103 0)
(-0.0624422 0.0285595 0)
(-0.0702639 0.021827 0)
(-0.0774959 0.0129383 0)
(-0.0835411 0.00144204 0)
(-0.0874189 -0.0128639 0)
(-0.0876232 -0.0296409 0)
(-0.0822738 -0.04727 0)
(-0.0698306 -0.0622337 0)
(-0.0503759 -0.0690413 0)
(-0.0271986 -0.0621004 0)
(-0.00750302 -0.040341 0)
(5.47934e-05 -0.011344 0)
(-0.00107716 0.0159474 0)
(-0.00558524 0.0352357 0)
(-0.0133304 0.0453921 0)
(-0.0221778 0.0495612 0)
(-0.0312917 0.0501831 0)
(-0.0404693 0.0488057 0)
(-0.0497157 0.0461759 0)
(-0.0591346 0.0424557 0)
(-0.0688482 0.037416 0)
(-0.0789105 0.0305501 0)
(-0.089184 0.0211336 0)
(-0.0991468 0.00829734 0)
(-0.107651 -0.00879049 0)
(-0.112519 -0.0303995 0)
(-0.110545 -0.0552646 0)
(-0.0984346 -0.0789991 0)
(-0.0747615 -0.0931943 0)
(-0.0426457 -0.0874653 0)
(-0.0123178 -0.0573422 0)
(8.41833e-05 -0.0149131 0)
(-0.00116558 0.01908 0)
(-0.00603624 0.0420043 0)
(-0.0143589 0.0539269 0)
(-0.0237823 0.0587791 0)
(-0.0334343 0.0596122 0)
(-0.0431831 0.0583586 0)
(-0.0531571 0.055968 0)
(-0.0636306 0.0526869 0)
(-0.0749516 0.0482826 0)
(-0.0874571 0.0421374 0)
(-0.101324 0.0332357 0)
(-0.116277 0.0201137 0)
(-0.131072 0.000940066 0)
(-0.142836 -0.0258537 0)
(-0.146755 -0.0600699 0)
(-0.137244 -0.0968115 0)
(-0.110622 -0.124078 0)
(-0.068475 -0.124192 0)
(-0.0226798 -0.0847072 0)
(-0.0006915 -0.0214032 0)
(-0.00128487 0.0224804 0)
(-0.00659141 0.0493137 0)
(-0.0155438 0.0630386 0)
(-0.0255051 0.0685139 0)
(-0.0355561 0.0695234 0)
(-0.0456486 0.0684611 0)
(-0.0560501 0.066536 0)
(-0.0672265 0.0641385 0)
(-0.0797903 0.0611013 0)
(-0.0944312 0.0567518 0)
(-0.11175 0.0497694 0)
(-0.131853 0.0379141 0)
(-0.153563 0.0178726 0)
(-0.173409 -0.0140822 0)
(-0.185124 -0.0595704 0)
(-0.181077 -0.113688 0)
(-0.155175 -0.160825 0)
(-0.105888 -0.174619 0)
(-0.0429829 -0.128847 0)
(-0.00392842 -0.0347852 0)
(-0.00146986 0.0262339 0)
(-0.00734947 0.0572633 0)
(-0.0170202 0.0727348 0)
(-0.0274549 0.0786484 0)
(-0.0376765 0.0796792 0)
(-0.0477323 0.0787649 0)
(-0.0580224 0.0774266 0)
(-0.0691783 0.0762608 0)
(-0.0820371 0.0752456 0)
(-0.0975961 0.0737251 0)
(-0.116845 0.0700642 0)
(-0.140309 0.0610541 0)
(-0.167092 0.0414585 0)
(-0.193525 0.00483815 0)
(-0.212796 -0.0527859 0)
(-0.21664 -0.126825 0)
(-0.197301 -0.199381 0)
(-0.149202 -0.236884 0)
(-0.0759466 -0.195572 0)
(-0.0124807 -0.0618708 0)
(-0.00179268 0.0305134 0)
(-0.00850336 0.0660355 0)
(-0.0190482 0.0830331 0)
(-0.029864 0.0890015 0)
(-0.0399234 0.0897126 0)
(-0.0493918 0.0887144 0)
(-0.0587685 0.0878575 0)
(-0.0687532 0.0879732 0)
(-0.0802525 0.0892361 0)
(-0.0943642 0.0910569 0)
(-0.112247 0.0914882 0)
(-0.134747 0.086283 0)
(-0.161521 0.0682556 0)
(-0.189656 0.0284932 0)
(-0.213191 -0.0391449 0)
(-0.225476 -0.131413 0)
(-0.218501 -0.230841 0)
(-0.182928 -0.301376 0)
(-0.114496 -0.282785 0)
(-0.0281347 -0.111073 0)
(-0.00239826 0.0356646 0)
(-0.0104119 0.0759611 0)
(-0.0220853 0.0939714 0)
(-0.0331399 0.0993127 0)
(-0.0425715 0.0991145 0)
(-0.050731 0.0975426 0)
(-0.0581664 0.0967155 0)
(-0.0654928 0.0976505 0)
(-0.0734444 0.100701 0)
(-0.0829078 0.105367 0)
(-0.0949052 0.109491 0)
(-0.110472 0.108088 0)
(-0.130134 0.0927054 0)
(-0.152779 0.0530892 0)
(-0.174966 -0.0183075 0)
(-0.193737 -0.121796 0)
(-0.201567 -0.243017 0)
(-0.187182 -0.350635 0)
(-0.139535 -0.374978 0)
(-0.0462154 -0.189569 0)
(-0.00357775 0.0423779 0)
(-0.0137272 0.0876112 0)
(-0.0268793 0.105581 0)
(-0.0378765 0.109188 0)
(-0.045989 0.107209 0)
(-0.0519215 0.104303 0)
(-0.0562434 0.102671 0)
(-0.0593495 0.103373 0)
(-0.0616027 0.10685 0)
(-0.0634437 0.112699 0)
(-0.0655452 0.118806 0)
(-0.0690305 0.120134 0)
(-0.0753329 0.108087 0)
(-0.0857083 0.0723528 0)
(-0.101353 0.00466677 0)
(-0.122199 -0.0981122 0)
(-0.142371 -0.229118 0)
(-0.151375 -0.368436 0)
(-0.134991 -0.4493 0)
(-0.0546541 -0.294281 0)
(-0.00593955 0.05207 0)
(-0.0196506 0.10189 0)
(-0.0345803 0.117725 0)
(-0.0447089 0.117918 0)
(-0.050251 0.113045 0)
(-0.0526016 0.10787 0)
(-0.0523982 0.104365 0)
(-0.0498176 0.103426 0)
(-0.0448656 0.105462 0)
(-0.0375631 0.110177 0)
(-0.0282235 0.11578 0)
(-0.0180275 0.11802 0)
(-0.00915886 0.10934 0)
(-0.00461514 0.0801278 0)
(-0.00900578 0.0219442 0)
(-0.0257301 -0.0693475 0)
(-0.0527912 -0.195591 0)
(-0.08119 -0.351837 0)
(-0.101275 -0.488305 0)
(-0.0451349 -0.401875 0)
(-0.0108788 0.0675761 0)
(-0.0305272 0.119833 0)
(-0.0467508 0.129575 0)
(-0.0533782 0.124081 0)
(-0.0532453 0.115048 0)
(-0.0490539 0.10664 0)
(-0.0417157 0.100257 0)
(-0.0314126 0.0964519 0)
(-0.018051 0.0954749 0)
(-0.00147855 0.0971007 0)
(0.0183012 0.100069 0)
(0.0403304 0.101224 0)
(0.0620657 0.0949551 0)
(0.0795499 0.0733614 0)
(0.0868735 0.028364 0)
(0.078696 -0.0458459 0)
(0.0522417 -0.155289 0)
(0.0124882 -0.308785 0)
(-0.0453126 -0.48371 0)
(-0.0173716 -0.478262 0)
(-0.0220311 0.0938023 0)
(-0.0513258 0.142706 0)
(-0.062979 0.138595 0)
(-0.0551041 0.122636 0)
(-0.0396652 0.10764 0)
(-0.0211936 0.095448 0)
(-0.000791209 0.0860689 0)
(0.0213 0.07941 0)
(0.0451751 0.0753594 0)
(0.0711432 0.0735977 0)
(0.0993502 0.0733384 0)
(0.129405 0.072486 0)
(0.159184 0.067576 0)
(0.185426 0.0531218 0)
(0.201411 0.023021 0)
(0.201831 -0.0298323 0)
(0.178201 -0.112645 0)
(0.133495 -0.241888 0)
(0.0392367 -0.425409 0)
(0.0345973 -0.487053 0)
(-0.0642671 0.172916 0)
(-0.0745617 0.153443 0)
(-0.0270604 0.112095 0)
(0.022989 0.0903924 0)
(0.0691721 0.0754727 0)
(0.111348 0.0636891 0)
(0.150183 0.0545728 0)
(0.186451 0.0479079 0)
(0.220862 0.0433541 0)
(0.254374 0.0404552 0)
(0.28734 0.038729 0)
(0.320416 0.0370208 0)
(0.351517 0.0337482 0)
(0.379946 0.025895 0)
(0.39651 0.0102743 0)
(0.39992 -0.0177535 0)
(0.371669 -0.0642428 0)
(0.318482 -0.145234 0)
(0.188264 -0.294003 0)
(0.138846 -0.388855 0)
(0.213371 0.129696 0)
(0.255733 0.107157 0)
(0.353952 0.0748489 0)
(0.435843 0.0547497 0)
(0.495955 0.0418972 0)
(0.542373 0.0326987 0)
(0.580407 0.025866 0)
(0.6128 0.0208275 0)
(0.640941 0.0171991 0)
(0.666476 0.0146105 0)
(0.689582 0.0127943 0)
(0.711878 0.0113486 0)
(0.730547 0.00976409 0)
(0.747573 0.00734744 0)
(0.752701 0.00282269 0)
(0.750648 -0.00421046 0)
(0.713054 -0.0168957 0)
(0.656283 -0.0378044 0)
(0.496643 -0.0839317 0)
(0.366246 -0.140054 0)
)
;

boundaryField
{
    movingWall
    {
        type            fixedValue;
        value           uniform (1 0 0);
    }
    fixedWalls
    {
        type            noSlip;
    }
    frontAndBack
    {
        type            empty;
    }
}


// ************************************************************************* //
