/*--------------------------------*- C++ -*----------------------------------*\
  =========                 |
  \\      /  F ield         | OpenFOAM: The Open Source CFD Toolbox
   \\    /   O peration     | Website:  https://openfoam.org
    \\  /    A nd           | Version:  7
     \\/     M anipulation  |
\*---------------------------------------------------------------------------*/
FoamFile
{
    version     2.0;
    format      ascii;
    class       volScalarField;
    location    "0.3";
    object      p;
}
// * * * * * * * * * * * * * * * * * * * * * * * * * * * * * * * * * * * * * //

dimensions      [0 2 -2 0 0 0 0];

internalField   nonuniform List<scalar> 
400
(
-7.57161e-09
-5.25777e-05
-4.55447e-05
2.46972e-05
0.000159305
0.000358777
0.000623672
0.000954609
0.00135103
0.00180949
0.00232193
0.00287401
0.00344405
0.00400179
0.0045106
0.00493123
0.00522953
0.0053877
0.0054121
0.00532581
5.36346e-05
-3.10825e-07
1.70142e-05
9.43019e-05
0.000228623
0.000422424
0.000677971
0.000996785
0.00137884
0.0018212
0.00231635
0.0028507
0.00340369
0.00394593
0.00444168
0.00485266
0.00514647
0.00530786
0.00533958
0.00524896
4.07896e-05
-2.73558e-05
-1.1427e-05
6.54778e-05
0.000196279
0.000384022
0.000632161
0.000943538
0.00131963
0.00175911
0.00225619
0.00279878
0.00336643
0.00392905
0.00444772
0.00487892
0.00518473
0.00534682
0.00536608
0.00524523
-5.25922e-05
-0.000135339
-0.000125011
-5.25061e-05
7.22621e-05
0.000252836
0.000493969
0.000800325
0.00117568
0.00162137
0.00213421
0.00270402
0.00331164
0.00392417
0.00449648
0.00497455
0.00530856
0.00547296
0.00547001
0.00530793
-0.000237107
-0.000331393
-0.000327627
-0.000261725
-0.000145126
2.65767e-05
0.000259806
0.000561595
0.000938822
0.00139656
0.00193547
0.00254835
0.00321886
0.00391058
0.00456948
0.00512501
0.00550709
0.0056767
0.00564014
0.00542147
-0.000518116
-0.000622733
-0.000626685
-0.000569654
-0.000464047
-0.00030438
-8.22486e-05
0.000212267
0.000589987
0.00106101
0.00163189
0.00230163
0.00305576
0.00385916
0.00464613
0.0053217
0.00578202
0.0059617
0.00587013
0.00555896
-0.000897887
-0.00101341
-0.00102696
-0.000981948
-0.000891826
-0.000750092
-0.000546271
-0.000267226
0.000102498
0.00057937
0.00117852
0.00190877
0.00276283
0.00371137
0.0046788
0.005537
0.00612646
0.00632937
0.00614755
0.00566992
-0.00137784
-0.00150594
-0.00153168
-0.00150298
-0.00143499
-0.00132063
-0.00114768
-0.000899961
-0.000557144
-9.52753e-05
0.00051177
0.00128697
0.0022387
0.00335554
0.0045628
0.00569498
0.00650406
0.00676848
0.00644945
0.00566061
-0.00195914
-0.00210213
-0.00214303
-0.0021358
-0.00209849
-0.00202447
-0.00190083
-0.00170943
-0.00142607
-0.00101983
-0.00045291
0.000315665
0.00132076
0.0025817
0.00406865
0.00559415
0.00678887
0.00722611
0.00673247
0.00537268
-0.0026427
-0.00280321
-0.00286181
-0.00288085
-0.00288343
-0.00286509
-0.00281426
-0.0027134
-0.00253768
-0.00225339
-0.001816
-0.00116838
-0.000245261
0.00100766
0.0026965
0.00469675
0.00655716
0.00747912
0.00687823
0.00461649
-0.00342964
-0.00361023
-0.00368696
-0.00373446
-0.00378415
-0.00383642
-0.00388411
-0.00391465
-0.00390902
-0.00384026
-0.00367152
-0.00335434
-0.00281986
-0.00194252
-0.000543312
0.00169572
0.00451264
0.0066473
0.00648606
0.00344337
-0.00432296
-0.00452536
-0.0046157
-0.00468737
-0.00478516
-0.00491766
-0.0050859
-0.00528814
-0.00552091
-0.00578047
-0.00606671
-0.00639481
-0.00679876
-0.00722125
-0.00719995
-0.00575127
-0.00213059
0.002386
0.00453147
0.00261635
-0.00533154
-0.00555499
-0.0056445
-0.0057237
-0.0058584
-0.00606866
-0.00636685
-0.0067678
-0.0072945
-0.00798712
-0.00892132
-0.010253
-0.0122663
-0.0151662
-0.0182842
-0.0194008
-0.0160513
-0.00832942
-0.000701906
0.00252782
-0.00647876
-0.00671581
-0.00677119
-0.0068206
-0.006962
-0.00722796
-0.0076422
-0.00823846
-0.00907292
-0.0102449
-0.0119371
-0.0145017
-0.0185571
-0.0246712
-0.0321017
-0.0372736
-0.0354758
-0.0250944
-0.0104424
0.000929169
-0.00781935
-0.0080464
-0.00799837
-0.00794848
-0.00804149
-0.00831649
-0.00880149
-0.00954422
-0.01063
-0.012214
-0.0145814
-0.0182546
-0.0240868
-0.0328199
-0.0437064
-0.0527254
-0.0530742
-0.041864
-0.022573
-0.00325848
-0.0094746
-0.00962134
-0.00932635
-0.00906506
-0.00903225
-0.00924848
-0.0097295
-0.010524
-0.0117312
-0.0135391
-0.0162928
-0.0205827
-0.0272923
-0.0370058
-0.0489431
-0.059587
-0.0611403
-0.0503968
-0.0298629
-0.00378449
-0.0117814
-0.0116379
-0.0107943
-0.0101302
-0.00986833
-0.00994626
-0.0103365
-0.01107
-0.0122429
-0.0140507
-0.0168596
-0.0212101
-0.0279405
-0.0373566
-0.0483845
-0.0572243
-0.0582569
-0.0465497
-0.0233722
0.0143667
-0.0155764
-0.0141996
-0.0121229
-0.01095
-0.0104453
-0.0103504
-0.0105947
-0.0111902
-0.0122288
-0.0138977
-0.016564
-0.0207295
-0.026986
-0.0353119
-0.0443584
-0.0501817
-0.0472045
-0.0285835
0.00783312
0.0687308
-0.0200115
-0.0182175
-0.0143676
-0.0118657
-0.0107845
-0.0103579
-0.0103872
-0.0108248
-0.0117518
-0.0133353
-0.0159312
-0.0199253
-0.025687
-0.032751
-0.039314
-0.0406535
-0.0292683
0.00557478
0.0704884
0.169692
-0.0526673
-0.0195119
-0.00910178
-0.00720295
-0.00688074
-0.00684826
-0.00719874
-0.00799601
-0.00931461
-0.0112686
-0.0142138
-0.0183947
-0.0239768
-0.029947
-0.0338198
-0.0295442
-0.00804896
0.0480735
0.150608
0.297545
)
;

boundaryField
{
    movingWall
    {
        type            zeroGradient;
    }
    fixedWalls
    {
        type            zeroGradient;
    }
    frontAndBack
    {
        type            empty;
    }
}


// ************************************************************************* //
