/*--------------------------------*- C++ -*----------------------------------*\
  =========                 |
  \\      /  F ield         | OpenFOAM: The Open Source CFD Toolbox
   \\    /   O peration     | Website:  https://openfoam.org
    \\  /    A nd           | Version:  7
     \\/     M anipulation  |
\*---------------------------------------------------------------------------*/
FoamFile
{
    version     2.0;
    format      ascii;
    class       surfaceScalarField;
    location    "0.3";
    object      phi;
}
// * * * * * * * * * * * * * * * * * * * * * * * * * * * * * * * * * * * * * //

dimensions      [0 3 -1 0 0 0 0];

internalField   nonuniform List<scalar> 
760
(
-1.28302e-08
1.28308e-08
-5.89305e-08
4.61003e-08
-1.23111e-07
6.41804e-08
-1.93125e-07
7.00136e-08
-2.63153e-07
7.00279e-08
-3.30582e-07
6.74295e-08
-3.93676e-07
6.30938e-08
-4.50491e-07
5.68147e-08
-4.98482e-07
4.79911e-08
-5.3443e-07
3.59485e-08
-5.54557e-07
2.01264e-08
-5.54876e-07
3.1959e-10
-5.31538e-07
-2.33383e-08
-4.82097e-07
-4.94404e-08
-4.06561e-07
-7.55362e-08
-3.09026e-07
-9.75359e-08
-1.99365e-07
-1.09661e-07
-9.47812e-08
-1.04584e-07
-2.03145e-08
-7.44667e-08
-2.03145e-08
-4.89418e-08
6.17726e-08
-1.5781e-07
1.54968e-07
-2.96777e-07
2.03147e-07
-4.46013e-07
2.1925e-07
-5.94231e-07
2.18245e-07
-7.35125e-07
2.08324e-07
-8.64219e-07
1.92187e-07
-9.77098e-07
1.69693e-07
-1.06869e-06
1.39581e-07
-1.13309e-06
1.00348e-07
-1.16377e-06
5.08114e-08
-1.1542e-06
-9.25052e-09
-1.09843e-06
-7.91075e-08
-9.93205e-07
-1.54668e-07
-8.3975e-07
-2.28992e-07
-6.46459e-07
-2.90826e-07
-4.31574e-07
-3.24546e-07
-2.24872e-07
-3.11285e-07
-6.62842e-08
-2.33055e-07
-8.65986e-08
-7.30807e-08
1.34853e-07
-2.22074e-07
3.03961e-07
-4.06149e-07
3.87223e-07
-6.00993e-07
4.14093e-07
-7.92954e-07
4.10207e-07
-9.74174e-07
3.89544e-07
-1.13896e-06
3.56971e-07
-1.28181e-06
3.12549e-07
-1.39661e-06
2.54373e-07
-1.47631e-06
1.80056e-07
-1.51318e-06
8.76745e-08
-1.49911e-06
-2.33121e-08
-1.42685e-06
-1.51376e-07
-1.29186e-06
-2.89658e-07
-1.09511e-06
-4.25738e-07
-8.46634e-07
-5.39302e-07
-5.69241e-07
-6.01939e-07
-3.00639e-07
-5.79887e-07
-9.15152e-08
-4.42178e-07
-1.78114e-07
-8.62171e-08
2.2107e-07
-2.59758e-07
4.77502e-07
-4.71582e-07
5.99047e-07
-6.94045e-07
6.36556e-07
-9.12432e-07
6.28593e-07
-1.11857e-06
5.95683e-07
-1.30663e-06
5.45035e-07
-1.47096e-06
4.76878e-07
-1.6051e-06
3.88511e-07
-1.70138e-06
2.76332e-07
-1.75085e-06
1.37146e-07
-1.74368e-06
-3.04831e-08
-1.6696e-06
-2.25449e-07
-1.52106e-06
-4.38205e-07
-1.29634e-06
-6.5045e-07
-1.00519e-06
-8.30461e-07
-6.74667e-07
-9.32458e-07
-3.5267e-07
-9.01885e-07
-1.04253e-07
-6.90595e-07
-2.82367e-07
-9.38852e-08
3.14955e-07
-2.83623e-07
6.6724e-07
-5.14581e-07
8.30005e-07
-7.56641e-07
8.78616e-07
-9.9463e-07
8.66581e-07
-1.22071e-06
8.21765e-07
-1.42957e-06
7.53893e-07
-1.61597e-06
6.63282e-07
-1.77359e-06
5.46128e-07
-1.89427e-06
3.97012e-07
-1.96758e-06
2.10456e-07
-1.98122e-06
-1.68416e-08
-1.91977e-06
-2.86906e-07
-1.76984e-06
-5.88133e-07
-1.52365e-06
-8.96635e-07
-1.18791e-06
-1.1662e-06
-7.94351e-07
-1.32601e-06
-4.06707e-07
-1.28953e-06
-1.1349e-07
-9.83812e-07
-3.95856e-07
-9.97317e-08
4.14687e-07
-3.02694e-07
8.70202e-07
-5.49921e-07
1.07723e-06
-8.0933e-07
1.13803e-06
-1.06565e-06
1.1229e-06
-1.31183e-06
1.06794e-06
-1.54357e-06
9.85639e-07
-1.75665e-06
8.76363e-07
-1.94541e-06
7.34881e-07
-2.1016e-06
5.53205e-07
-2.21322e-06
3.22074e-07
-2.2649e-06
3.48452e-08
-2.23403e-06
-3.17776e-07
-2.09774e-06
-7.24429e-07
-1.83655e-06
-1.15782e-06
-1.4484e-06
-1.55436e-06
-9.6779e-07
-1.80663e-06
-4.82461e-07
-1.77486e-06
-1.23079e-07
-1.34319e-06
-5.18935e-07
-1.05553e-07
5.2024e-07
-3.21717e-07
1.08637e-06
-5.85306e-07
1.34082e-06
-8.62408e-07
1.41513e-06
-1.13792e-06
1.39842e-06
-1.40598e-06
1.336e-06
-1.66395e-06
1.24361e-06
-1.90935e-06
1.12177e-06
-2.13813e-06
9.63656e-07
-2.34297e-06
7.58048e-07
-2.51148e-06
4.9059e-07
-2.62327e-06
1.46633e-07
-2.65098e-06
-2.90073e-07
-2.55542e-06
-8.19982e-07
-2.297e-06
-1.41624e-06
-1.85234e-06
-1.99901e-06
-1.24911e-06
-2.40986e-06
-6.07337e-07
-2.41663e-06
-1.36223e-07
-1.81431e-06
-6.55158e-07
-1.12102e-07
6.32342e-07
-3.42751e-07
1.31701e-06
-6.2389e-07
1.62196e-06
-9.19615e-07
1.71085e-06
-1.2152e-06
1.69401e-06
-1.50648e-06
1.62727e-06
-1.79316e-06
1.53029e-06
-2.07563e-06
1.40423e-06
-2.3529e-06
1.24093e-06
-2.62058e-06
1.02573e-06
-2.86791e-06
7.37924e-07
-3.07345e-06
3.52168e-07
-3.20394e-06
-1.59586e-07
-3.20101e-06
-8.22904e-07
-2.9919e-06
-1.62535e-06
-2.50698e-06
-2.48394e-06
-1.73956e-06
-3.17728e-06
-8.42138e-07
-3.31406e-06
-1.6482e-07
-2.49163e-06
-8.19979e-07
-1.19756e-07
7.52098e-07
-3.66739e-07
1.564e-06
-6.6677e-07
1.92199e-06
-9.81539e-07
2.02562e-06
-1.29688e-06
2.00935e-06
-1.61083e-06
1.94121e-06
-1.92634e-06
1.84581e-06
-2.24799e-06
1.72588e-06
-2.58003e-06
1.57297e-06
-2.92426e-06
1.36996e-06
-3.27639e-06
1.09006e-06
-3.61916e-06
6.9493e-07
-3.92084e-06
1.42102e-07
-4.10229e-06
-6.41454e-07
-4.0413e-06
-1.68634e-06
-3.57917e-06
-2.94607e-06
-2.61807e-06
-4.13838e-06
-1.31898e-06
-4.61315e-06
-2.49668e-07
-3.56094e-06
-1.06965e-06
-1.29033e-07
8.81131e-07
-3.94733e-07
1.8297e-06
-7.14834e-07
2.24209e-06
-1.04798e-06
2.35877e-06
-1.38072e-06
2.34209e-06
-1.71382e-06
2.27432e-06
-2.05434e-06
2.18632e-06
-2.41249e-06
2.08402e-06
-2.8004e-06
1.96089e-06
-3.23062e-06
1.80018e-06
-3.71272e-06
1.57216e-06
-4.24639e-06
1.2286e-06
-4.79988e-06
6.95592e-07
-5.30274e-06
-1.38594e-07
-5.54896e-06
-1.44012e-06
-5.23997e-06
-3.25506e-06
-4.10897e-06
-5.26938e-06
-2.26218e-06
-6.45994e-06
-5.01249e-07
-5.32187e-06
-1.5709e-06
-1.41051e-07
1.02218e-06
-4.28907e-07
2.11755e-06
-7.70188e-07
2.58337e-06
-1.11965e-06
2.70822e-06
-1.46479e-06
2.68724e-06
-1.80957e-06
2.61909e-06
-2.16565e-06
2.5424e-06
-2.54992e-06
2.46829e-06
-2.98458e-06
2.39555e-06
-3.49747e-06
2.31308e-06
-4.12041e-06
2.19509e-06
-4.88103e-06
1.98922e-06
-5.77533e-06
1.58989e-06
-6.7111e-06
7.97178e-07
-7.42643e-06
-7.24793e-07
-7.43716e-06
-3.24433e-06
-6.27723e-06
-6.42931e-06
-3.90207e-06
-8.83509e-06
-1.14337e-06
-8.08057e-06
-2.71427e-06
-1.58113e-07
1.1803e-06
-4.73696e-07
2.43314e-06
-8.37551e-07
2.94723e-06
-1.1997e-06
3.07037e-06
-1.54916e-06
3.0367e-06
-1.89343e-06
2.96336e-06
-2.24863e-06
2.89761e-06
-2.63799e-06
2.85765e-06
-3.09399e-06
2.85155e-06
-3.66146e-06
2.88054e-06
-4.39794e-06
2.93157e-06
-5.36356e-06
2.95484e-06
-6.58302e-06
2.80936e-06
-7.9494e-06
2.16355e-06
-9.12983e-06
4.55638e-07
-9.55851e-06
-2.81565e-06
-8.6627e-06
-7.32512e-06
-6.14736e-06
-1.13504e-05
-2.39556e-06
-1.18324e-05
-5.10982e-06
-1.84664e-07
1.36496e-06
-5.37372e-07
2.78584e-06
-9.25891e-07
3.33575e-06
-1.29529e-06
3.43977e-06
-1.63764e-06
3.37905e-06
-1.96433e-06
3.29006e-06
-2.29465e-06
3.22792e-06
-2.6553e-06
3.2183e-06
-3.08473e-06
3.28097e-06
-3.63854e-06
3.43436e-06
-4.39103e-06
3.68406e-06
-5.41975e-06
3.98356e-06
-6.75411e-06
4.14372e-06
-8.283e-06
3.69244e-06
-9.66362e-06
1.83626e-06
-1.04253e-05
-2.05399e-06
-1.01176e-05
-7.63281e-06
-8.14128e-06
-1.33267e-05
-4.03141e-06
-1.59422e-05
-9.14123e-06
-2.29002e-07
1.59396e-06
-6.34547e-07
3.19139e-06
-1.05045e-06
3.75165e-06
-1.41892e-06
3.80824e-06
-1.73908e-06
3.69921e-06
-2.02694e-06
3.57792e-06
-2.30214e-06
3.50312e-06
-2.58885e-06
3.50501e-06
-2.92102e-06
3.61314e-06
-3.34827e-06
3.86162e-06
-3.93676e-06
4.27254e-06
-4.75147e-06
4.79827e-06
-5.80707e-06
5.19932e-06
-7.01144e-06
4.89682e-06
-8.18817e-06
3.01298e-06
-9.05498e-06
-1.18717e-06
-9.44568e-06
-7.24211e-06
-8.55294e-06
-1.42195e-05
-5.21662e-06
-1.92786e-05
-1.43579e-05
-3.06469e-07
1.90043e-06
-7.9038e-07
3.6753e-06
-1.23507e-06
4.19633e-06
-1.58883e-06
4.162e-06
-1.867e-06
3.97738e-06
-2.0916e-06
3.80252e-06
-2.27878e-06
3.6903e-06
-2.44221e-06
3.66845e-06
-2.59798e-06
3.76891e-06
-2.76886e-06
4.03249e-06
-2.98556e-06
4.48925e-06
-3.27884e-06
5.09154e-06
-3.66438e-06
5.58486e-06
-4.14054e-06
5.37298e-06
-4.74547e-06
3.61791e-06
-5.59907e-06
-3.33569e-07
-6.55317e-06
-6.28801e-06
-6.87337e-06
-1.38993e-05
-4.98384e-06
-2.11681e-05
-1.93417e-05
-4.47287e-07
2.34772e-06
-1.0485e-06
4.27651e-06
-1.5125e-06
4.66033e-06
-1.82433e-06
4.47384e-06
-2.03183e-06
4.18488e-06
-2.16332e-06
3.93401e-06
-2.22803e-06
3.75502e-06
-2.22454e-06
3.66495e-06
-2.14479e-06
3.68916e-06
-1.97594e-06
3.86365e-06
-1.70647e-06
4.21978e-06
-1.33504e-06
4.72011e-06
-9.03509e-07
5.15332e-06
-5.64694e-07
5.03417e-06
-5.66452e-07
3.61967e-06
-1.18538e-06
2.85358e-07
-2.40734e-06
-5.06605e-06
-3.76753e-06
-1.25391e-05
-3.564e-06
-2.13716e-05
-2.29057e-05
-7.1675e-07
3.06447e-06
-1.48557e-06
5.04533e-06
-1.92838e-06
5.10314e-06
-2.13448e-06
4.67994e-06
-2.20646e-06
4.25686e-06
-2.17747e-06
3.90502e-06
-2.05245e-06
3.63e-06
-1.82236e-06
3.43486e-06
-1.46731e-06
3.33411e-06
-9.50051e-07
3.34639e-06
-2.31846e-07
3.50157e-06
7.10377e-07
3.77789e-06
1.81014e-06
4.05356e-06
2.87682e-06
3.96748e-06
3.50303e-06
2.99347e-06
3.23024e-06
5.58144e-07
1.94513e-06
-3.78094e-06
-6.62798e-08
-1.05277e-05
-1.36781e-06
-2.00701e-05
-2.42735e-05
-1.28308e-06
4.34755e-06
-2.26708e-06
6.02932e-06
-2.52782e-06
5.36389e-06
-2.36872e-06
4.52083e-06
-2.01744e-06
3.90558e-06
-1.54817e-06
3.43574e-06
-9.86629e-07
3.06846e-06
-3.36174e-07
2.7844e-06
4.13847e-07
2.58409e-06
1.28991e-06
2.47032e-06
2.33574e-06
2.45575e-06
3.59501e-06
2.51861e-06
5.04211e-06
2.60647e-06
6.50585e-06
2.50374e-06
7.58236e-06
1.91696e-06
7.75607e-06
3.84436e-07
6.72457e-06
-2.74943e-06
4.41422e-06
-8.21734e-06
1.5375e-06
-1.71934e-05
-2.2736e-05
-4.02784e-06
8.37539e-06
-3.35952e-06
5.36101e-06
-1.46875e-06
3.47311e-06
2.8677e-07
2.76531e-06
1.88545e-06
2.3069e-06
3.37958e-06
1.94161e-06
4.79367e-06
1.65438e-06
6.14246e-06
1.43561e-06
7.44502e-06
1.28152e-06
8.74073e-06
1.17462e-06
1.00705e-05
1.12601e-06
1.14838e-05
1.10528e-06
1.29826e-05
1.10764e-06
1.44804e-05
1.00596e-06
1.56844e-05
7.12964e-07
1.60003e-05
6.84985e-08
1.50144e-05
-1.76354e-06
1.19373e-05
-5.14017e-06
6.01195e-06
-1.12681e-05
-1.6724e-05
8.37539e-06
1.37364e-05
1.72095e-05
1.99748e-05
2.22817e-05
2.42233e-05
2.58777e-05
2.73133e-05
2.85949e-05
2.97695e-05
3.08955e-05
3.20008e-05
3.31084e-05
3.41144e-05
3.48273e-05
3.48958e-05
3.31323e-05
2.79921e-05
1.6724e-05
)
;

boundaryField
{
    movingWall
    {
        type            calculated;
        value           uniform 0;
    }
    fixedWalls
    {
        type            calculated;
        value           uniform 0;
    }
    frontAndBack
    {
        type            empty;
        value           nonuniform 0();
    }
}


// ************************************************************************* //
