/*--------------------------------*- C++ -*----------------------------------*\
  =========                 |
  \\      /  F ield         | OpenFOAM: The Open Source CFD Toolbox
   \\    /   O peration     | Website:  https://openfoam.org
    \\  /    A nd           | Version:  7
     \\/     M anipulation  |
\*---------------------------------------------------------------------------*/
FoamFile
{
    version     2.0;
    format      ascii;
    class       volVectorField;
    location    "0.3";
    object      U;
}
// * * * * * * * * * * * * * * * * * * * * * * * * * * * * * * * * * * * * * //

dimensions      [0 1 -1 0 0 0 0];

internalField   nonuniform List<vector> 
400
(
(-4.21355e-05 3.50681e-05 0)
(-0.000592502 0.00030487 0)
(-0.0017723 0.000458751 0)
(-0.00315438 0.000508234 0)
(-0.00457152 0.000512367 0)
(-0.00595548 0.000499859 0)
(-0.00726857 0.000477298 0)
(-0.00847626 0.00044171 0)
(-0.00953448 0.000386857 0)
(-0.0103855 0.000305951 0)
(-0.0109585 0.000193129 0)
(-0.0111746 4.48658e-05 0)
(-0.0109529 -0.000137639 0)
(-0.0102272 -0.000345153 0)
(-0.00896903 -0.000557294 0)
(-0.00721502 -0.000739836 0)
(-0.00510011 -0.000843182 0)
(-0.00287912 -0.00080167 0)
(-0.00095564 -0.000542424 0)
(-6.48079e-05 -8.97112e-05 0)
(-0.000337753 0.000605208 0)
(-0.00183331 0.00175679 0)
(-0.00444527 0.0023743 0)
(-0.00741714 0.00258199 0)
(-0.0104307 0.00258124 0)
(-0.0133446 0.00247942 0)
(-0.0160638 0.00230877 0)
(-0.0185036 0.00206444 0)
(-0.0205705 0.00172756 0)
(-0.0221545 0.00127652 0)
(-0.02313 0.000693629 0)
(-0.0233631 -2.81523e-05 0)
(-0.0227244 -0.000875175 0)
(-0.0211153 -0.00180283 0)
(-0.0185078 -0.00272271 0)
(-0.0149902 -0.00349287 0)
(-0.0108177 -0.00391499 0)
(-0.00643797 -0.00374417 0)
(-0.00256258 -0.00273736 0)
(-0.000430367 -0.000896551 0)
(-0.000539247 0.00189516 0)
(-0.00265683 0.00444253 0)
(-0.00616006 0.00573057 0)
(-0.0100658 0.00615749 0)
(-0.0139833 0.00611649 0)
(-0.0177445 0.00582407 0)
(-0.0212296 0.00535419 0)
(-0.0243315 0.00470576 0)
(-0.0269357 0.00384752 0)
(-0.0289106 0.00274147 0)
(-0.0301069 0.00135736 0)
(-0.0303629 -0.00031291 0)
(-0.0295192 -0.00223682 0)
(-0.0274491 -0.00431373 0)
(-0.0241068 -0.00635203 0)
(-0.0195911 -0.00804574 0)
(-0.0142144 -0.00897113 0)
(-0.00853844 -0.00862285 0)
(-0.003474 -0.0065291 0)
(-0.0006189 -0.00255633 0)
(-0.000641128 0.00352143 0)
(-0.00312349 0.00773372 0)
(-0.00717991 0.00976684 0)
(-0.0116555 0.0104095 0)
(-0.0161173 0.0102941 0)
(-0.0203933 0.00976184 0)
(-0.0243618 0.00893269 0)
(-0.0279128 0.00780986 0)
(-0.0309276 0.00634839 0)
(-0.0332656 0.00449032 0)
(-0.0347597 0.00218706 0)
(-0.0352198 -0.000578621 0)
(-0.0344381 -0.00376597 0)
(-0.0322248 -0.00721876 0)
(-0.0284727 -0.010629 0)
(-0.023244 -0.0134882 0)
(-0.0168823 -0.0150791 0)
(-0.0100837 -0.014552 0)
(-0.00401525 -0.0111374 0)
(-0.000675495 -0.00454215 0)
(-0.000694407 0.00533299 0)
(-0.00340588 0.0113864 0)
(-0.00783873 0.0142158 0)
(-0.0127125 0.0150736 0)
(-0.0175667 0.0148724 0)
(-0.0222366 0.0140922 0)
(-0.0266108 0.0129015 0)
(-0.0305897 0.0113063 0)
(-0.0340612 0.00924312 0)
(-0.0368818 0.00662481 0)
(-0.0388671 0.00336888 0)
(-0.0397887 -0.000572948 0)
(-0.0393623 -0.00517108 0)
(-0.0372848 -0.0102365 0)
(-0.033323 -0.015338 0)
(-0.027435 -0.0197112 0)
(-0.0199625 -0.0222295 0)
(-0.01179 -0.0215444 0)
(-0.00449742 -0.0164883 0)
(-0.000667537 -0.00671003 0)
(-0.000732256 0.00727096 0)
(-0.00362502 0.0153157 0)
(-0.0083718 0.0189991 0)
(-0.01359 0.0200881 0)
(-0.0187998 0.0198125 0)
(-0.0238501 0.0188075 0)
(-0.0286501 0.017294 0)
(-0.0331216 0.015279 0)
(-0.0371703 0.0126738 0)
(-0.0406605 0.0093477 0)
(-0.0433954 0.00515853 0)
(-0.0451002 -7.68271e-06 0)
(-0.0453919 -0.0061633 0)
(-0.043799 -0.0131467 0)
(-0.0398656 -0.0204127 0)
(-0.0333255 -0.0268738 0)
(-0.024422 -0.0308041 0)
(-0.0142594 -0.0300588 0)
(-0.00510665 -0.0228609 0)
(-0.0005977 -0.00904271 0)
(-0.000769936 0.00932149 0)
(-0.00384299 0.0195021 0)
(-0.00890373 0.0241019 0)
(-0.0144701 0.0254479 0)
(-0.0200459 0.0251245 0)
(-0.0255008 0.0239405 0)
(-0.0307749 0.0221763 0)
(-0.035825 0.0198402 0)
(-0.0405925 0.0168125 0)
(-0.0449706 0.0129038 0)
(-0.0487684 0.00788387 0)
(-0.0516648 0.00152603 0)
(-0.0531871 -0.0063093 0)
(-0.0526531 -0.0155687 0)
(-0.0492382 -0.025658 0)
(-0.0422372 -0.0351305 0)
(-0.0315362 -0.0413923 0)
(-0.0183551 -0.0409395 0)
(-0.00606642 -0.0308523 0)
(-0.000426332 -0.0115585 0)
(-0.000813445 0.0114936 0)
(-0.00408647 0.0239621 0)
(-0.00948786 0.0295415 0)
(-0.0154239 0.0311703 0)
(-0.0213824 0.0308306 0)
(-0.0272613 0.0295276 0)
(-0.0330436 0.0276119 0)
(-0.0387393 0.0250985 0)
(-0.0443506 0.0218364 0)
(-0.0498338 0.0175679 0)
(-0.055047 0.0119478 0)
(-0.0596841 0.00457556 0)
(-0.0632186 -0.00493226 0)
(-0.0647338 -0.016765 0)
(-0.0628904 -0.0304888 0)
(-0.0561746 -0.0443986 0)
(-0.0435352 -0.0547503 0)
(-0.0258371 -0.0556558 0)
(-0.00799513 -0.0416793 0)
(-0.00012954 -0.0143749 0)
(-0.000866092 0.0138063 0)
(-0.00436885 0.0287284 0)
(-0.0101468 0.0353455 0)
(-0.0164712 0.0372719 0)
(-0.0228116 0.0369399 0)
(-0.0291025 0.0355806 0)
(-0.0353837 0.0336316 0)
(-0.0417395 0.0311278 0)
(-0.0482668 0.0278985 0)
(-0.0550376 0.0236219 0)
(-0.0620396 0.017822 0)
(-0.069094 0.0098633 0)
(-0.0757444 -0.000990457 0)
(-0.0809382 -0.0153551 0)
(-0.0826859 -0.0334832 0)
(-0.0780736 -0.0538618 0)
(-0.0640553 -0.0715125 0)
(-0.0400835 -0.0765286 0)
(-0.0126488 -0.0578208 0)
(0.000125015 -0.0180751 0)
(-0.000933454 0.0162858 0)
(-0.00470718 0.0338431 0)
(-0.010903 0.04154 0)
(-0.0176226 0.0437521 0)
(-0.0243127 0.0434287 0)
(-0.0309533 0.042063 0)
(-0.0376543 0.0402037 0)
(-0.0445954 0.0379305 0)
(-0.0520056 0.0350836 0)
(-0.060142 0.031312 0)
(-0.0692466 0.0260378 0)
(-0.0794445 0.0183942 0)
(-0.0905276 0.00718377 0)
(-0.101643 -0.00909209 0)
(-0.110116 -0.0319646 0)
(-0.110719 -0.061371 0)
(-0.0970056 -0.0914831 0)
(-0.0657696 -0.106347 0)
(-0.0241347 -0.0838943 0)
(-0.000526179 -0.0247409 0)
(-0.0010282 0.0189737 0)
(-0.00513716 0.0393622 0)
(-0.0118042 0.0481473 0)
(-0.0189115 0.0505849 0)
(-0.0258787 0.0502258 0)
(-0.032741 0.0488687 0)
(-0.0396877 0.0472022 0)
(-0.0470065 0.0453875 0)
(-0.0550863 0.0433312 0)
(-0.0644288 0.0407322 0)
(-0.0756463 0.0370104 0)
(-0.0893972 0.0311561 0)
(-0.106141 0.0214387 0)
(-0.125327 0.00491045 0)
(-0.143581 -0.0225576 0)
(-0.152682 -0.0639768 0)
(-0.141825 -0.11342 0)
(-0.105324 -0.147072 0)
(-0.0490811 -0.12674 0)
(-0.00459748 -0.039431 0)
(-0.0011769 0.0219437 0)
(-0.00573098 0.0453724 0)
(-0.0129484 0.0551919 0)
(-0.0204234 0.0577146 0)
(-0.0275483 0.0572027 0)
(-0.0344278 0.0558049 0)
(-0.0413325 0.0543757 0)
(-0.0486503 0.0531997 0)
(-0.0569229 0.0523269 0)
(-0.0669071 0.0516285 0)
(-0.0796293 0.0506834 0)
(-0.0963737 0.0484702 0)
(-0.118424 0.0426266 0)
(-0.145816 0.0280196 0)
(-0.1742 -0.00397675 0)
(-0.192298 -0.0607918 0)
(-0.1868 -0.136197 0)
(-0.151935 -0.198083 0)
(-0.0899066 -0.191801 0)
(-0.016119 -0.0702397 0)
(-0.00143198 0.0253347 0)
(-0.00662451 0.0520187 0)
(-0.0145179 0.0627081 0)
(-0.0223278 0.0650528 0)
(-0.0294378 0.064167 0)
(-0.03605 0.0625821 0)
(-0.0425081 0.0613255 0)
(-0.0492562 0.0608344 0)
(-0.0569152 0.0613752 0)
(-0.0663891 0.0631211 0)
(-0.078954 0.0659714 0)
(-0.0962721 0.0689506 0)
(-0.120197 0.0687314 0)
(-0.151274 0.0571012 0)
(-0.184547 0.0203222 0)
(-0.207598 -0.053199 0)
(-0.208985 -0.156351 0)
(-0.18483 -0.252196 0)
(-0.131209 -0.275917 0)
(-0.0349489 -0.129773 0)
(-0.00189448 0.029407 0)
(-0.00806322 0.0595477 0)
(-0.0168257 0.0707475 0)
(-0.0249118 0.07247 0)
(-0.0317665 0.0708582 0)
(-0.0377512 0.0688192 0)
(-0.0432644 0.0675111 0)
(-0.0487189 0.0675067 0)
(-0.0546538 0.0693078 0)
(-0.0618548 0.073443 0)
(-0.0714307 0.0801785 0)
(-0.0848264 0.0885007 0)
(-0.103864 0.0938543 0)
(-0.129619 0.0851301 0)
(-0.158311 0.0452725 0)
(-0.179771 -0.0388176 0)
(-0.18788 -0.162334 0)
(-0.179254 -0.291649 0)
(-0.14604 -0.362965 0)
(-0.0488512 -0.231507 0)
(-0.00275824 0.0346545 0)
(-0.010483 0.0683496 0)
(-0.0203849 0.0793357 0)
(-0.0286073 0.0797485 0)
(-0.034853 0.0769337 0)
(-0.0397723 0.0740619 0)
(-0.0437925 0.0722971 0)
(-0.0471778 0.0722523 0)
(-0.0501804 0.0745777 0)
(-0.0531342 0.080058 0)
(-0.0565092 0.0892236 0)
(-0.0609964 0.101009 0)
(-0.0679771 0.110105 0)
(-0.079347 0.104192 0)
(-0.094554 0.0659561 0)
(-0.109751 -0.0171426 0)
(-0.123445 -0.145546 0)
(-0.130379 -0.298353 0)
(-0.126358 -0.425906 0)
(-0.043856 -0.354372 0)
(-0.00441754 0.0421648 0)
(-0.014684 0.0792656 0)
(-0.0260035 0.0886427 0)
(-0.0339483 0.0866091 0)
(-0.0389916 0.0819559 0)
(-0.0422631 0.0777919 0)
(-0.0441665 0.0750228 0)
(-0.0447304 0.0741215 0)
(-0.0438186 0.0757042 0)
(-0.0411699 0.0805908 0)
(-0.0364802 0.0894337 0)
(-0.029647 0.101328 0)
(-0.0216517 0.111426 0)
(-0.0152334 0.10855 0)
(-0.0129441 0.0765458 0)
(-0.0190903 0.00278381 0)
(-0.0357788 -0.114383 0)
(-0.0553456 -0.274044 0)
(-0.0845605 -0.448063 0)
(-0.0213602 -0.451551 0)
(-0.00770203 0.0536474 0)
(-0.0222393 0.0921087 0)
(-0.0349616 0.0969085 0)
(-0.0415524 0.0917239 0)
(-0.0440466 0.0850667 0)
(-0.0443213 0.0793072 0)
(-0.0427259 0.0749785 0)
(-0.0391516 0.0723379 0)
(-0.0332834 0.071831 0)
(-0.0245096 0.0740788 0)
(-0.0121163 0.0797438 0)
(0.00448888 0.08829 0)
(0.0248522 0.09638 0)
(0.0459077 0.095507 0)
(0.0620598 0.0724721 0)
(0.0666273 0.013462 0)
(0.0522207 -0.0848893 0)
(0.0272219 -0.236665 0)
(-0.0324767 -0.437313 0)
(0.0113451 -0.503478 0)
(-0.0140774 0.0669291 0)
(-0.0356833 0.11227 0)
(-0.0510789 0.110175 0)
(-0.0507966 0.0964072 0)
(-0.0447363 0.085135 0)
(-0.0361974 0.0764091 0)
(-0.0257352 0.0696562 0)
(-0.0135153 0.0646096 0)
(0.000463287 0.0613673 0)
(0.0167783 0.0601595 0)
(0.0360278 0.0614129 0)
(0.0591151 0.0648106 0)
(0.0855038 0.0687237 0)
(0.113728 0.0675512 0)
(0.137392 0.0528628 0)
(0.151666 0.0128769 0)
(0.141249 -0.0620864 0)
(0.120945 -0.189523 0)
(0.0423291 -0.385049 0)
(0.0648384 -0.49037 0)
(-0.0820419 0.141552 0)
(-0.0798067 0.118544 0)
(-0.0468186 0.0868918 0)
(-0.0117849 0.07198 0)
(0.021882 0.0618876 0)
(0.0529317 0.0536572 0)
(0.0820589 0.0470103 0)
(0.10986 0.0418435 0)
(0.136234 0.0381285 0)
(0.16254 0.0356602 0)
(0.188239 0.0346717 0)
(0.215992 0.0346601 0)
(0.242782 0.0353856 0)
(0.272343 0.0338036 0)
(0.294584 0.0261865 0)
(0.312629 0.00465245 0)
(0.299307 -0.0394984 0)
(0.282648 -0.120221 0)
(0.183821 -0.268207 0)
(0.163083 -0.378204 0)
(0.181951 0.122847 0)
(0.219663 0.0998238 0)
(0.301464 0.071914 0)
(0.371306 0.0545217 0)
(0.424533 0.0432109 0)
(0.466969 0.0349845 0)
(0.502094 0.0287168 0)
(0.53315 0.023808 0)
(0.559602 0.0201247 0)
(0.585037 0.0172202 0)
(0.606382 0.0152664 0)
(0.630079 0.0136892 0)
(0.64788 0.0128423 0)
(0.670909 0.0114152 0)
(0.679531 0.0093361 0)
(0.692122 0.00339783 0)
(0.664389 -0.00750603 0)
(0.63315 -0.0295097 0)
(0.491847 -0.0698533 0)
(0.366163 -0.126179 0)
)
;

boundaryField
{
    movingWall
    {
        type            fixedValue;
        value           uniform (1 0 0);
    }
    fixedWalls
    {
        type            noSlip;
    }
    frontAndBack
    {
        type            empty;
    }
}


// ************************************************************************* //
