/*--------------------------------*- C++ -*----------------------------------*\
  =========                 |
  \\      /  F ield         | OpenFOAM: The Open Source CFD Toolbox
   \\    /   O peration     | Website:  https://openfoam.org
    \\  /    A nd           | Version:  9
     \\/     M anipulation  |
\*---------------------------------------------------------------------------*/
FoamFile
{
    format      ascii;
    class       volScalarField;
    location    "0.5";
    object      p;
}
// * * * * * * * * * * * * * * * * * * * * * * * * * * * * * * * * * * * * * //

dimensions      [ 0 2 -2 0 0 0 0 ];

internalField   nonuniform List<scalar> 
400
(
5.89239e-09
-1.1351e-07
-4.44086e-06
-1.24195e-05
-2.27517e-05
-3.45329e-05
-4.70973e-05
-6.00084e-05
-7.3062e-05
-8.62349e-05
-9.96002e-05
-0.000113226
-0.00012708
-0.000140955
-0.000154409
-0.000166764
-0.000177149
-0.000184538
-0.000187817
-0.000186806
9.06062e-06
7.74993e-06
2.77494e-06
-5.36566e-06
-1.58015e-05
-2.79414e-05
-4.13281e-05
-5.5601e-05
-7.04942e-05
-8.58104e-05
-0.000101381
-0.000117017
-0.000132472
-0.000147407
-0.000161377
-0.000173846
-0.000184199
-0.000191745
-0.0001956
-0.0001954
3.61979e-05
3.09367e-05
2.25333e-05
1.1432e-05
-1.76444e-06
-1.65096e-05
-3.23847e-05
-4.90962e-05
-6.64444e-05
-8.42838e-05
-0.000102477
-0.000120852
-0.000139161
-0.000157049
-0.000174045
-0.000189567
-0.000202949
-0.000213449
-0.00022026
-0.000222905
8.08789e-05
6.84956e-05
5.36712e-05
3.71045e-05
1.90622e-05
3.00456e-08
-1.96352e-05
-3.97878e-05
-6.04182e-05
-8.15756e-05
-0.000103301
-0.000125564
-0.000148209
-0.000170909
-0.00019315
-0.000214229
-0.00023327
-0.00024931
-0.000261498
-0.000269202
0.000144437
0.000119878
9.45483e-05
6.95041e-05
4.44167e-05
1.96266e-05
-4.67215e-06
-2.86572e-05
-5.27288e-05
-7.73637e-05
-0.000103004
-0.000129959
-0.000158306
-0.000187826
-0.000217952
-0.000247757
-0.000275958
-0.00030112
-0.000322189
-0.000338126
0.000228572
0.000183275
0.000141121
0.00010362
6.91637e-05
3.76609e-05
8.88685e-06
-1.80094e-05
-4.42351e-05
-7.10966e-05
-9.98165e-05
-0.000131384
-0.000166379
-0.000204845
-0.000246198
-0.000289158
-0.000331745
-0.000371681
-0.000407473
-0.000437057
0.000331534
0.00025143
0.000182909
0.000127884
8.20319e-05
4.41818e-05
1.31747e-05
-1.31314e-05
-3.74182e-05
-6.2489e-05
-9.09457e-05
-0.000125092
-0.000166502
-0.000215833
-0.000272631
-0.00033514
-0.000400231
-0.00046415
-0.000524614
-0.000577898
0.000441738
0.000304748
0.000196113
0.000117668
5.96383e-05
1.85198e-05
-8.66385e-06
-2.6305e-05
-3.95629e-05
-5.37476e-05
-7.37725e-05
-0.000104353
-0.000149003
-0.000209779
-0.000286844
-0.000377984
-0.000478331
-0.000581658
-0.000684299
-0.000779344
0.000525071
0.000298537
0.000131249
2.35e-05
-4.47639e-05
-8.15239e-05
-9.28584e-05
-8.66451e-05
-7.17643e-05
-5.73271e-05
-5.19327e-05
-6.44322e-05
-0.000102134
-0.000170278
-0.000271078
-0.000402531
-0.000557501
-0.000725849
-0.000901567
-0.00107163
0.000501809
0.000141066
-0.000107814
-0.000249461
-0.000322036
-0.000341196
-0.000317545
-0.000263471
-0.000192483
-0.000118592
-5.56718e-05
-1.90884e-05
-2.35412e-05
-8.14169e-05
-0.000200891
-0.000382999
-0.000618913
-0.000893007
-0.00119566
-0.00150203
0.000208623
-0.000340821
-0.000696707
-0.000875162
-0.000943789
-0.000929891
-0.000849256
-0.000718179
-0.000553649
-0.000373908
-0.000198948
-5.21699e-05
3.76397e-05
4.27432e-05
-6.07698e-05
-0.000286114
-0.000628095
-0.00106606
-0.001586
-0.00214008
-0.000654006
-0.00144731
-0.00193493
-0.00215541
-0.00221988
-0.00217103
-0.00202803
-0.00180618
-0.00151914
-0.00118333
-0.000821817
-0.000457768
-0.000146023
5.59063e-05
8.62568e-05
-0.000105913
-0.000540043
-0.00120206
-0.00207836
-0.0030765
-0.0025726
-0.00364704
-0.00428777
-0.00457098
-0.00466571
-0.00463254
-0.00448866
-0.00423684
-0.00387035
-0.00338399
-0.0027851
-0.0020547
-0.00129263
-0.00060118
-0.00012124
-3.0552e-06
-0.000355684
-0.00122421
-0.00262901
-0.00439805
-0.00621992
-0.00756872
-0.00837732
-0.00877748
-0.00900794
-0.00915017
-0.00921335
-0.00917183
-0.00896815
-0.00851725
-0.00773143
-0.0066131
-0.00514408
-0.00346915
-0.0018645
-0.000698135
-0.000334797
-0.00105499
-0.00305994
-0.0060801
-0.0123287
-0.0138811
-0.0148512
-0.015446
-0.0159889
-0.0165957
-0.0172719
-0.0179533
-0.0185043
-0.0187166
-0.0183284
-0.0170908
-0.0148685
-0.0116812
-0.007884
-0.00416996
-0.00145692
-0.000716088
-0.00282135
-0.00756283
-0.0213875
-0.0230171
-0.0240433
-0.0247883
-0.0257153
-0.0270214
-0.028736
-0.0307693
-0.0329013
-0.0347617
-0.0358243
-0.0354625
-0.0331617
-0.0285389
-0.0216899
-0.0134512
-0.00548652
-0.000212975
-0.000334377
-0.00639448
-0.0334712
-0.0349825
-0.0355711
-0.035917
-0.0367999
-0.0385549
-0.0412575
-0.0448103
-0.0489264
-0.0530919
-0.0565356
-0.0582401
-0.0569728
-0.051825
-0.0421372
-0.0282261
-0.0120134
0.00230202
0.00879736
0.00480658
-0.0495925
-0.0502924
-0.0484986
-0.046399
-0.0456157
-0.0465878
-0.049324
-0.0536323
-0.0590988
-0.0650439
-0.0703666
-0.0737136
-0.0734408
-0.0678017
-0.0552621
-0.0352029
-0.00873663
0.0192623
0.0398958
0.0467149
-0.0734845
-0.0663381
-0.0584654
-0.052742
-0.0495408
-0.0488549
-0.0506298
-0.0545604
-0.0600125
-0.0660017
-0.0711573
-0.0737288
-0.0715811
-0.061618
-0.0416946
-0.0100497
0.0334542
0.0853729
0.138408
0.180182
-0.223329
-0.126565
-0.0737561
-0.049625
-0.0379179
-0.0330269
-0.033074
-0.0366308
-0.042183
-0.0481094
-0.05257
-0.0533753
-0.0480119
-0.033522
-0.00476118
0.0433386
0.115304
0.212426
0.331884
0.470353
)
;

boundaryField
{
    movingWall
    {
        type            zeroGradient;
    }
    fixedWalls
    {
        type            zeroGradient;
    }
    frontAndBack
    {
        type            empty;
    }
}


// ************************************************************************* //
