/*--------------------------------*- C++ -*----------------------------------*\
  =========                 |
  \\      /  F ield         | OpenFOAM: The Open Source CFD Toolbox
   \\    /   O peration     | Website:  https://openfoam.org
    \\  /    A nd           | Version:  9
     \\/     M anipulation  |
\*---------------------------------------------------------------------------*/
FoamFile
{
    format      ascii;
    class       surfaceScalarField;
    location    "0.5";
    object      phi;
}
// * * * * * * * * * * * * * * * * * * * * * * * * * * * * * * * * * * * * * //

dimensions      [ 0 3 -1 0 0 0 0 ];

internalField   nonuniform List<scalar> 
760
(
9.1218e-10
-9.12275e-10
2.40216e-09
-1.49039e-09
3.60385e-09
-1.20178e-09
4.13257e-09
-5.28797e-10
3.95942e-09
1.72957e-10
3.27815e-09
6.80967e-10
2.38969e-09
8.88158e-10
1.60608e-09
7.83352e-10
1.17869e-09
4.27218e-10
1.25138e-09
-7.27832e-11
1.83616e-09
-5.8485e-10
2.8137e-09
-9.77649e-10
3.95276e-09
-1.13921e-09
4.95081e-09
-9.98193e-10
5.49323e-09
-5.42508e-10
5.32902e-09
1.6418e-10
4.3614e-09
9.67673e-10
2.74565e-09
1.61589e-09
9.88372e-10
1.75754e-09
9.88808e-10
8.00229e-10
-1.71261e-09
1.39641e-09
-2.08637e-09
8.79806e-10
-6.84675e-10
-9.90047e-10
1.34141e-09
-3.98282e-09
3.16601e-09
-7.56305e-09
4.26156e-09
-1.10633e-08
4.38884e-09
-1.38357e-08
3.55627e-09
-1.53726e-08
1.9647e-09
-1.53896e-08
-5.52245e-11
-1.38676e-08
-2.10641e-09
-1.10535e-08
-3.79131e-09
-7.42159e-09
-4.7709e-09
-3.59683e-09
-4.8228e-09
-2.47735e-10
-3.89144e-09
2.04581e-09
-2.12907e-09
2.9357e-09
7.82655e-11
2.44524e-09
2.10698e-09
1.08931e-09
3.11403e-09
2.07845e-09
-7.87254e-11
-1.63403e-09
-2.0615e-09
-1.03752e-10
-6.58807e-09
3.84147e-09
-1.34471e-08
8.19993e-09
-2.18386e-08
1.15572e-08
-3.06396e-08
1.30624e-08
-3.8637e-08
1.23861e-08
-4.4731e-08
9.65019e-09
-4.80953e-08
5.32896e-09
-4.8285e-08
1.34427e-10
-4.52884e-08
-5.10292e-09
-3.95244e-08
-9.55524e-09
-3.17826e-08
-1.25127e-08
-2.31137e-08
-1.34918e-08
-1.46755e-08
-1.23296e-08
-7.54827e-09
-9.25605e-09
-2.53342e-09
-4.93612e-09
4.43455e-11
-4.70202e-10
5.14587e-10
2.64434e-09
2.59262e-09
-1.53625e-09
-9.74782e-11
-7.88188e-09
6.24192e-09
-1.9169e-08
1.51287e-08
-3.43536e-08
2.33848e-08
-5.16683e-08
2.8872e-08
-6.90125e-08
3.04069e-08
-8.4291e-08
2.76649e-08
-9.56928e-08
2.10522e-08
-1.01903e-07
1.15388e-08
-1.02239e-07
4.71227e-10
-9.67203e-08
-1.0622e-08
-8.60483e-08
-2.02272e-08
-7.15246e-08
-2.70364e-08
-5.48888e-08
-3.01275e-08
-3.80961e-08
-2.9122e-08
-2.30464e-08
-2.43054e-08
-1.12871e-08
-1.6695e-08
-3.71877e-09
-8.03815e-09
-3.34238e-10
-7.39725e-10
2.25816e-09
-4.05469e-09
3.95694e-09
-1.78189e-08
2.0006e-08
-4.0462e-08
3.77718e-08
-6.94892e-08
5.2412e-08
-1.01508e-07
6.08912e-08
-1.32826e-07
6.17246e-08
-1.59933e-07
5.47714e-08
-1.79887e-07
4.10066e-08
-1.90602e-07
2.22533e-08
-1.91026e-07
8.94438e-10
-1.81225e-07
-2.04229e-08
-1.62367e-07
-3.90855e-08
-1.36591e-07
-5.2813e-08
-1.06772e-07
-5.99458e-08
-7.61914e-08
-5.97028e-08
-4.81128e-08
-5.23839e-08
-2.53231e-08
-3.94848e-08
-9.66682e-09
-2.36947e-08
-1.62311e-09
-8.78357e-09
6.3596e-10
-8.59134e-09
1.25483e-08
-3.52474e-08
4.66624e-08
-7.72046e-08
7.97292e-08
-1.29417e-07
1.04625e-07
-1.85798e-07
1.17272e-07
-2.40097e-07
1.16024e-07
-2.86577e-07
1.01251e-07
-3.20525e-07
7.49542e-08
-3.3863e-07
4.03581e-08
-3.39231e-07
1.49433e-09
-3.22432e-07
-3.7222e-08
-2.90102e-07
-7.14157e-08
-2.45701e-07
-9.72131e-08
-1.93951e-07
-1.11695e-07
-1.40325e-07
-1.13329e-07
-9.0387e-08
-1.02322e-07
-4.90392e-08
-8.0833e-08
-1.97515e-08
-5.29829e-08
-3.8664e-09
-2.46694e-08
-3.2299e-09
-1.67307e-08
2.92792e-08
-6.5621e-08
9.55528e-08
-1.40138e-07
1.54246e-07
-2.3083e-07
1.95317e-07
-3.27246e-07
2.13687e-07
-4.19143e-07
2.07922e-07
-4.97362e-07
1.79469e-07
-5.54457e-07
1.32048e-07
-5.85171e-07
7.10713e-08
-5.86778e-07
3.10141e-09
-5.5926e-07
-6.47404e-08
-5.05413e-07
-1.25263e-07
-4.30656e-07
-1.7197e-07
-3.42609e-07
-1.99742e-07
-2.50347e-07
-2.05591e-07
-1.63348e-07
-1.89321e-07
-9.02196e-08
-1.53961e-07
-3.73677e-08
-1.05835e-07
-7.77352e-09
-5.42635e-08
-1.10042e-08
-3.09438e-08
6.02231e-08
-1.17232e-07
1.81841e-07
-2.45343e-07
2.82357e-07
-3.98511e-07
3.48486e-07
-5.59487e-07
3.74663e-07
-7.12051e-07
3.60485e-07
-8.41968e-07
3.09386e-07
-9.37666e-07
2.27747e-07
-9.90771e-07
1.24176e-07
-9.96589e-07
8.91864e-09
-9.54377e-07
-1.06953e-07
-8.67828e-07
-2.11811e-07
-7.4496e-07
-2.94838e-07
-5.97727e-07
-3.46975e-07
-4.4102e-07
-3.62299e-07
-2.91011e-07
-3.39331e-07
-1.62964e-07
-2.82009e-07
-6.88074e-08
-1.99991e-07
-1.48619e-08
-1.08208e-07
-2.58666e-08
-5.48612e-08
1.15084e-07
-2.01857e-07
3.28837e-07
-4.15235e-07
4.95735e-07
-6.66708e-07
5.99958e-07
-9.29025e-07
6.36979e-07
-1.1775e-06
6.08956e-07
-1.39073e-06
5.22623e-07
-1.55112e-06
3.88131e-07
-1.64527e-06
2.18327e-07
-1.66471e-06
2.83646e-08
-1.60639e-06
-1.65278e-07
-1.47393e-06
-3.44267e-07
-1.27808e-06
-4.90688e-07
-1.03672e-06
-5.88343e-07
-7.73782e-07
-6.25233e-07
-5.16857e-07
-5.96256e-07
-2.93349e-07
-5.05518e-07
-1.2592e-07
-3.67421e-07
-2.79784e-08
-2.06149e-07
-5.3845e-08
-9.32543e-08
2.08339e-07
-3.34337e-07
5.69919e-07
-6.77464e-07
8.38862e-07
-1.07736e-06
9.99857e-07
-1.49311e-06
1.05273e-06
-1.88893e-06
1.00478e-06
-2.23402e-06
8.67714e-07
-2.50228e-06
6.5639e-07
-2.67242e-06
3.88466e-07
-2.72881e-06
8.47536e-08
-2.66247e-06
-2.31617e-07
-2.47379e-06
-5.32945e-07
-2.17457e-06
-7.89911e-07
-1.78939e-06
-9.73525e-07
-1.35532e-06
-1.05931e-06
-9.18824e-07
-1.03275e-06
-5.29478e-07
-8.94864e-07
-2.31164e-07
-6.65735e-07
-5.27101e-08
-3.84604e-07
-1.06556e-07
-1.51152e-07
3.59491e-07
-5.29384e-07
9.48151e-07
-1.05863e-06
1.36811e-06
-1.67063e-06
1.61185e-06
-2.30752e-06
1.68962e-06
-2.92051e-06
1.61777e-06
-3.46757e-06
1.41478e-06
-3.91151e-06
1.10033e-06
-4.21911e-06
6.96063e-07
-4.36197e-06
2.27612e-07
-4.31864e-06
-2.74949e-07
-4.07853e-06
-7.73055e-07
-3.6488e-06
-1.21964e-06
-3.05824e-06
-1.56408e-06
-2.36014e-06
-1.7574e-06
-1.63008e-06
-1.76281e-06
-9.56765e-07
-1.56818e-06
-4.25786e-07
-1.19671e-06
-9.96928e-08
-7.10698e-07
-2.06249e-07
-2.31232e-07
5.90723e-07
-7.93295e-07
1.51021e-06
-1.56883e-06
2.14364e-06
-2.46166e-06
2.50469e-06
-3.39559e-06
2.62355e-06
-4.30883e-06
2.531e-06
-5.14793e-06
2.25388e-06
-5.86277e-06
1.81518e-06
-6.40377e-06
1.23706e-06
-6.72214e-06
5.45978e-07
-6.77524e-06
-2.21847e-07
-6.52601e-06
-1.02228e-06
-5.9649e-06
-1.78076e-06
-5.11449e-06
-2.41449e-06
-4.04092e-06
-2.83097e-06
-2.85764e-06
-2.94608e-06
-1.7165e-06
-2.70932e-06
-7.81636e-07
-2.13158e-06
-1.88331e-07
-1.304e-06
-3.94579e-07
-3.28918e-07
9.19642e-07
-1.10938e-06
2.29068e-06
-2.17489e-06
3.20915e-06
-3.39987e-06
3.72967e-06
-4.69162e-06
3.91529e-06
-5.97865e-06
3.81804e-06
-7.19907e-06
3.47429e-06
-8.291e-06
2.90711e-06
-9.18647e-06
2.13253e-06
-9.80935e-06
1.16887e-06
-1.00895e-05
5.83225e-08
-9.93928e-06
-1.17252e-06
-9.31523e-06
-2.40481e-06
-8.20917e-06
-3.52055e-06
-6.67932e-06
-4.36082e-06
-4.87013e-06
-4.75527e-06
-3.01653e-06
-4.56293e-06
-1.41559e-06
-3.73252e-06
-3.52951e-07
-2.36665e-06
-7.4753e-07
-4.2697e-07
1.34661e-06
-1.42234e-06
3.28604e-06
-2.77066e-06
4.55748e-06
-4.32018e-06
5.2792e-06
-5.96728e-06
5.56239e-06
-7.63801e-06
5.48877e-06
-9.26997e-06
5.10624e-06
-1.07972e-05
4.4343e-06
-1.21398e-05
3.47522e-06
-1.32001e-05
2.22917e-06
-1.38536e-05
7.11793e-07
-1.39951e-05
-1.03104e-06
-1.35018e-05
-2.89806e-06
-1.22976e-05
-4.72478e-06
-1.03826e-05
-6.27583e-06
-7.88304e-06
-7.25485e-06
-5.09646e-06
-7.34951e-06
-2.49847e-06
-6.33051e-06
-6.5361e-07
-4.21151e-06
-1.40114e-06
-4.96484e-07
1.8431e-06
-1.64005e-06
4.42962e-06
-3.17352e-06
6.09094e-06
-4.92412e-06
7.0298e-06
-6.78511e-06
7.42338e-06
-8.69101e-06
7.39468e-06
-1.05931e-05
7.00837e-06
-1.24397e-05
6.28091e-06
-1.41617e-05
5.1972e-06
-1.56629e-05
3.73035e-06
-1.68141e-05
1.86302e-06
-1.74542e-05
-3.90947e-07
-1.74142e-05
-2.93813e-06
-1.65102e-05
-5.62876e-06
-1.46098e-05
-8.17623e-06
-1.17078e-05
-1.01568e-05
-8.04239e-06
-1.10149e-05
-4.21355e-06
-1.01593e-05
-1.18989e-06
-7.23518e-06
-2.59103e-06
-5.25748e-07
2.36884e-06
-1.70388e-06
5.60775e-06
-3.22618e-06
7.61324e-06
-4.89793e-06
8.70155e-06
-6.62095e-06
9.1464e-06
-8.35644e-06
9.13017e-06
-1.00928e-05
8.74476e-06
-1.18233e-05
8.01135e-06
-1.35296e-05
6.90347e-06
-1.51679e-05
5.3687e-06
-1.6656e-05
3.35112e-06
-1.78458e-05
7.98841e-07
-1.85588e-05
-2.22517e-06
-1.85312e-05
-5.65627e-06
-1.74518e-05
-9.25563e-06
-1.50481e-05
-1.25605e-05
-1.1256e-05
-1.4807e-05
-6.51269e-06
-1.49027e-05
-2.08308e-06
-1.16648e-05
-4.6741e-06
-6.19299e-07
2.98814e-06
-1.7975e-06
6.78594e-06
-3.07458e-06
8.89033e-06
-4.25304e-06
9.88001e-06
-5.28615e-06
1.01795e-05
-6.19392e-06
1.00379e-05
-7.02752e-06
9.57836e-06
-7.85288e-06
8.83671e-06
-8.73917e-06
7.78976e-06
-9.74911e-06
6.37864e-06
-1.09159e-05
4.51794e-06
-1.22396e-05
2.12255e-06
-1.35805e-05
-8.84315e-07
-1.47504e-05
-4.48637e-06
-1.53514e-05
-8.65456e-06
-1.48367e-05
-1.30753e-05
-1.26213e-05
-1.70224e-05
-8.47251e-06
-1.90515e-05
-3.29026e-06
-1.6847e-05
-7.96437e-06
-1.25396e-06
4.2421e-06
-2.83351e-06
8.36549e-06
-3.74134e-06
9.79816e-06
-3.89432e-06
1.0033e-05
-3.47315e-06
9.75834e-06
-2.67167e-06
9.23646e-06
-1.66415e-06
8.57085e-06
-6.13113e-07
7.78567e-06
3.2266e-07
6.85399e-06
9.86812e-07
5.71449e-06
1.21198e-06
4.29277e-06
8.39311e-07
2.49522e-06
-2.52576e-07
2.07572e-07
-2.05069e-06
-2.68826e-06
-4.39222e-06
-6.31304e-06
-6.76628e-06
-1.07012e-05
-8.22026e-06
-1.55684e-05
-7.53381e-06
-1.9738e-05
-4.04053e-06
-2.03403e-05
-1.20049e-05
-3.27206e-06
7.51416e-06
-4.4098e-06
9.50324e-06
-3.18314e-06
8.57151e-06
-5.89083e-07
7.43892e-06
2.7043e-06
6.46495e-06
6.31097e-06
5.62979e-06
9.97495e-06
4.90687e-06
1.35046e-05
4.256e-06
1.67331e-05
3.62547e-06
1.94874e-05
2.96022e-06
2.15728e-05
2.20733e-06
2.27467e-05
1.32135e-06
2.2644e-05
3.10261e-07
2.11866e-05
-1.23088e-06
1.80782e-05
-3.20456e-06
1.32367e-05
-5.85979e-06
7.09541e-06
-9.42705e-06
1.11198e-06
-1.37545e-05
-1.88897e-06
-1.73394e-05
-1.38939e-05
7.51416e-06
1.70174e-05
2.55889e-05
3.30278e-05
3.94928e-05
4.51226e-05
5.00294e-05
5.42854e-05
5.79109e-05
6.08711e-05
6.30785e-05
6.43998e-05
6.47101e-05
6.34792e-05
6.02746e-05
5.44148e-05
4.49878e-05
3.12332e-05
1.38939e-05
)
;

boundaryField
{
    movingWall
    {
        type            calculated;
        value           uniform 0;
    }
    fixedWalls
    {
        type            calculated;
        value           uniform 0;
    }
    frontAndBack
    {
        type            empty;
        value           nonuniform 0 ( );
    }
}


// ************************************************************************* //
