/*--------------------------------*- C++ -*----------------------------------*\
  =========                 |
  \\      /  F ield         | OpenFOAM: The Open Source CFD Toolbox
   \\    /   O peration     | Website:  https://openfoam.org
    \\  /    A nd           | Version:  7
     \\/     M anipulation  |
\*---------------------------------------------------------------------------*/
FoamFile
{
    version     2.0;
    format      ascii;
    class       volScalarField;
    location    "0.4";
    object      p;
}
// * * * * * * * * * * * * * * * * * * * * * * * * * * * * * * * * * * * * * //

dimensions      [0 2 -2 0 0 0 0];

internalField   nonuniform List<scalar> 
400
(
9.80756e-10
-0.000556055
-0.00117689
-0.00187206
-0.00266974
-0.00360966
-0.0047062
-0.00594642
-0.00728093
-0.00857789
-0.00951307
-0.00937979
-0.00688319
-0.000178805
0.0123689
0.0304833
0.0499632
0.0632638
0.0649368
0.0566964
6.52849e-05
-0.000444142
-0.000987275
-0.00163559
-0.00239224
-0.00327308
-0.00427257
-0.00536109
-0.00647851
-0.00750054
-0.00815577
-0.00786771
-0.00554366
0.000487845
0.011887
0.0286384
0.0470983
0.0601434
0.0626232
0.0554304
0.000233649
-0.000297407
-0.00078773
-0.00139471
-0.00211259
-0.00294204
-0.00386315
-0.00483903
-0.00581962
-0.00672763
-0.00739931
-0.00742283
-0.00584796
-0.000975348
0.00915346
0.0249975
0.0433306
0.0571715
0.0607479
0.053585
0.000491537
-0.000131303
-0.000590097
-0.0011647
-0.00185141
-0.00264262
-0.0035113
-0.00442679
-0.00537698
-0.00637999
-0.00743873
-0.00832921
-0.00816415
-0.00503289
0.00350171
0.0184936
0.0372894
0.0530383
0.0586224
0.0514329
0.000773722
2.97838e-05
-0.000407261
-0.000958478
-0.00162334
-0.00238911
-0.00322835
-0.00413202
-0.00515675
-0.00646471
-0.00827487
-0.010555
-0.0124044
-0.0115901
-0.00513037
0.00868316
0.0280551
0.0466046
0.055434
0.0493577
0.00103724
0.000149139
-0.000272665
-0.000810131
-0.00146292
-0.00221432
-0.00304333
-0.00397908
-0.00517733
-0.00698484
-0.00986325
-0.0139488
-0.018259
-0.0201981
-0.0162736
-0.00409263
0.0156435
0.0374889
0.0507656
0.0477468
0.00122137
0.000177489
-0.000232141
-0.000763396
-0.0014098
-0.00215056
-0.0029776
-0.00397406
-0.00542016
-0.00787187
-0.0120327
-0.0181646
-0.0251558
-0.0300642
-0.0289802
-0.0188568
0.000777154
0.0258625
0.0444915
0.0467519
0.00125601
5.49606e-05
-0.000338942
-0.000864363
-0.00149958
-0.00221858
-0.00303197
-0.00408994
-0.0058134
-0.00897226
-0.0144862
-0.0226936
-0.0323312
-0.040162
-0.0419676
-0.0341758
-0.015238
0.0124935
0.0368067
0.046178
0.00106114
-0.000287725
-0.000650801
-0.00115739
-0.00175937
-0.00242402
-0.00318554
-0.00427055
-0.00624583
-0.0100806
-0.0168673
-0.0269725
-0.0389819
-0.0494306
-0.0538951
-0.0484661
-0.030758
-0.00130198
0.0282789
0.0457382
0.000543463
-0.000928214
-0.00122638
-0.0016809
-0.00220456
-0.0027568
-0.00339996
-0.00444257
-0.00659212
-0.010987
-0.01884
-0.0305035
-0.0444286
-0.0569915
-0.0636622
-0.0603536
-0.0441685
-0.0139159
0.0198775
0.0455733
-0.000409308
-0.00195138
-0.00212085
-0.00246297
-0.00283677
-0.0031934
-0.00362759
-0.00453183
-0.00674123
-0.0115237
-0.0201578
-0.0329487
-0.048238
-0.0623056
-0.0706001
-0.0689321
-0.054213
-0.0237633
0.0130081
0.0465915
-0.00193929
-0.00344786
-0.00338028
-0.00351668
-0.00364298
-0.00370149
-0.00382251
-0.0044812
-0.00662232
-0.0115999
-0.0207077
-0.0341782
-0.0502745
-0.0652331
-0.0745246
-0.0738496
-0.0601741
-0.0295455
0.00933952
0.0505674
-0.00423832
-0.00551081
-0.00503287
-0.00483327
-0.00459377
-0.00424436
-0.00395073
-0.00426545
-0.00622231
-0.011219
-0.0205218
-0.0342695
-0.0506835
-0.0659898
-0.075663
-0.0752406
-0.0618654
-0.0304232
0.0104426
0.0601668
-0.00758442
-0.00822634
-0.00707263
-0.00636889
-0.00563585
-0.00477947
-0.00399389
-0.00389727
-0.00558987
-0.0104741
-0.0197571
-0.0334747
-0.0498437
-0.0649711
-0.0745018
-0.0736015
-0.0593844
-0.0260464
0.0174632
0.0788589
-0.0124144
-0.0116464
-0.00942728
-0.00801795
-0.0066717
-0.00524339
-0.00393782
-0.00341681
-0.00482076
-0.00952167
-0.0186524
-0.0321039
-0.0481214
-0.0627268
-0.0716242
-0.0694469
-0.0531594
-0.0163196
0.0315554
0.109924
-0.0194907
-0.0157333
-0.0119134
-0.00957043
-0.00752265
-0.00551964
-0.00374201
-0.00286018
-0.0040213
-0.00853721
-0.0174449
-0.0304873
-0.0459367
-0.0597282
-0.0675538
-0.0633387
-0.0436745
-0.00104751
0.0553781
0.154494
-0.0302352
-0.0202975
-0.0142047
-0.010657
-0.00788331
-0.00540222
-0.00330114
-0.0022149
-0.0032613
-0.00765032
-0.0163225
-0.0288739
-0.0436059
-0.056348
-0.0627585
-0.0558928
-0.0316449
0.0195875
0.0901234
0.215941
-0.0469144
-0.0246614
-0.0154899
-0.010569
-0.00723451
-0.00454238
-0.00239945
-0.00135717
-0.00247335
-0.00684504
-0.0153136
-0.0273546
-0.0413036
-0.0529101
-0.0578036
-0.0481334
-0.018829
0.0434573
0.134727
0.300048
-0.071559
-0.0249427
-0.012474
-0.00768444
-0.00464621
-0.00233228
-0.000611074
5.74546e-05
-0.00133285
-0.00580829
-0.0141352
-0.0257457
-0.0390131
-0.0497116
-0.0534342
-0.0417573
-0.00859671
0.0648224
0.182628
0.40673
-0.108579
-0.0140768
-0.000766123
-0.000637321
0.000370263
0.00145757
0.0022272
0.00221576
0.000404508
-0.00425616
-0.0125209
-0.0238882
-0.0367676
-0.0470913
-0.0505077
-0.0383305
-0.00397186
0.0761167
0.217243
0.5103
)
;

boundaryField
{
    movingWall
    {
        type            zeroGradient;
    }
    fixedWalls
    {
        type            zeroGradient;
    }
    frontAndBack
    {
        type            empty;
    }
}


// ************************************************************************* //
