/*--------------------------------*- C++ -*----------------------------------*\
  =========                 |
  \\      /  F ield         | OpenFOAM: The Open Source CFD Toolbox
   \\    /   O peration     | Website:  https://openfoam.org
    \\  /    A nd           | Version:  7
     \\/     M anipulation  |
\*---------------------------------------------------------------------------*/
FoamFile
{
    version     2.0;
    format      ascii;
    class       surfaceScalarField;
    location    "0.4";
    object      phi;
}
// * * * * * * * * * * * * * * * * * * * * * * * * * * * * * * * * * * * * * //

dimensions      [0 3 -1 0 0 0 0];

internalField   nonuniform List<scalar> 
760
(
1.5473e-08
-1.5473e-08
1.95321e-09
1.35198e-08
-2.61907e-08
2.81437e-08
-6.04695e-08
3.42787e-08
-9.96104e-08
3.91407e-08
-1.47553e-07
4.79426e-08
-2.11638e-07
6.40848e-08
-3.0239e-07
9.07522e-08
-4.3418e-07
1.3179e-07
-6.25229e-07
1.9105e-07
-8.94228e-07
2.68999e-07
-1.249e-06
3.54775e-07
-1.66393e-06
4.14923e-07
-2.05217e-06
3.88241e-07
-2.25787e-06
2.05706e-07
-2.09806e-06
-1.59816e-07
-1.489e-06
-6.09062e-07
-6.06094e-07
-8.82901e-07
2.7146e-08
-6.3324e-07
2.71459e-08
6.86948e-09
-2.23426e-08
-4.67756e-08
6.71646e-08
-1.38548e-07
1.19916e-07
-2.49831e-07
1.45561e-07
-3.78158e-07
1.67467e-07
-5.33954e-07
2.03739e-07
-7.37048e-07
2.67178e-07
-1.01547e-06
3.69173e-07
-1.40434e-06
5.20659e-07
-1.94041e-06
7.27121e-07
-2.6457e-06
9.74293e-07
-3.49488e-06
1.20395e-06
-4.37389e-06
1.29393e-06
-5.06002e-06
1.07437e-06
-5.26167e-06
4.07358e-07
-4.72938e-06
-6.9211e-07
-3.40307e-06
-1.93537e-06
-1.6111e-06
-2.67487e-06
-2.12333e-07
-2.03201e-06
-1.85187e-07
-2.12125e-08
-1.13016e-09
-1.31718e-07
1.7767e-07
-2.96141e-07
2.84339e-07
-4.90326e-07
3.39746e-07
-7.1244e-07
3.89581e-07
-9.78769e-07
4.70068e-07
-1.31923e-06
6.07643e-07
-1.77443e-06
8.24372e-07
-2.39037e-06
1.13659e-06
-3.20447e-06
1.54123e-06
-4.21656e-06
1.98638e-06
-5.34692e-06
2.33432e-06
-6.40555e-06
2.35256e-06
-7.11119e-06
1.78e-06
-7.1716e-06
4.67772e-07
-6.38629e-06
-1.47741e-06
-4.72915e-06
-3.59252e-06
-2.49506e-06
-4.90895e-06
-5.48132e-07
-3.97894e-06
-7.3332e-07
-6.14214e-08
6.02911e-08
-2.41361e-07
3.57609e-07
-4.85382e-07
5.2836e-07
-7.64716e-07
6.1908e-07
-1.07889e-06
7.03751e-07
-1.44902e-06
8.402e-07
-1.91185e-06
1.07047e-06
-2.51419e-06
1.42671e-06
-3.30229e-06
1.9247e-06
-4.30004e-06
2.53897e-06
-5.474e-06
3.16033e-06
-6.69822e-06
3.55855e-06
-7.75084e-06
3.40518e-06
-8.36712e-06
2.39629e-06
-8.32109e-06
4.21735e-07
-7.4727e-06
-2.3258e-06
-5.77099e-06
-5.29423e-06
-3.36689e-06
-7.31305e-06
-9.69261e-07
-6.37657e-06
-1.70258e-06
-1.09918e-07
1.70209e-07
-3.67498e-07
6.1519e-07
-6.94557e-07
8.55419e-07
-1.05686e-06
9.81383e-07
-1.45501e-06
1.1019e-06
-1.9131e-06
1.2983e-06
-2.4706e-06
1.62797e-06
-3.17383e-06
2.12994e-06
-4.06073e-06
2.8116e-06
-5.13498e-06
3.61322e-06
-6.33415e-06
4.3595e-06
-7.51147e-06
4.73586e-06
-8.45907e-06
4.35278e-06
-8.97349e-06
2.91071e-06
-8.90681e-06
3.55049e-07
-8.15508e-06
-3.07752e-06
-6.6079e-06
-6.84142e-06
-4.23368e-06
-9.68726e-06
-1.48162e-06
-9.12863e-06
-3.1842e-06
-1.63868e-07
3.34076e-07
-5.04038e-07
9.55361e-07
-9.13711e-07
1.26509e-06
-1.35218e-06
1.41986e-06
-1.82013e-06
1.56984e-06
-2.34215e-06
1.82032e-06
-2.95615e-06
2.24198e-06
-3.70253e-06
2.87631e-06
-4.60642e-06
3.71549e-06
-5.65283e-06
4.65963e-06
-6.76406e-06
5.47073e-06
-7.79991e-06
5.77172e-06
-8.59672e-06
5.14959e-06
-9.0246e-06
3.33858e-06
-9.00045e-06
3.30905e-07
-8.43696e-06
-3.64102e-06
-7.17057e-06
-8.10781e-06
-4.9979e-06
-1.18599e-05
-2.05276e-06
-1.20738e-05
-5.23697e-06
-2.21861e-07
5.55938e-07
-6.46551e-07
1.38005e-06
-1.13469e-06
1.75323e-06
-1.63818e-06
1.92334e-06
-2.15649e-06
2.08815e-06
-2.71213e-06
2.37596e-06
-3.33792e-06
2.86776e-06
-4.06511e-06
3.6035e-06
-4.90605e-06
4.55643e-06
-5.83397e-06
5.58755e-06
-6.77169e-06
6.40846e-06
-7.60561e-06
6.60564e-06
-8.22799e-06
5.77197e-06
-8.57556e-06
3.68615e-06
-8.61458e-06
3.69928e-07
-8.27135e-06
-3.98425e-06
-7.3565e-06
-9.02266e-06
-5.52873e-06
-1.36877e-05
-2.60644e-06
-1.49961e-05
-7.84341e-06
-2.83445e-07
8.39383e-07
-7.92191e-07
1.8888e-06
-1.35127e-06
2.31231e-06
-1.90486e-06
2.47693e-06
-2.45022e-06
2.63351e-06
-3.00571e-06
2.93145e-06
-3.59678e-06
3.45883e-06
-4.24483e-06
4.25156e-06
-4.95261e-06
5.26421e-06
-5.6904e-06
6.32534e-06
-6.39461e-06
7.11267e-06
-6.98876e-06
7.19979e-06
-7.42035e-06
6.20356e-06
-7.68006e-06
3.94586e-06
-7.77307e-06
4.62934e-07
-7.6461e-06
-4.11122e-06
-7.11068e-06
-9.55808e-06
-5.73018e-06
-1.50682e-05
-3.04779e-06
-1.76785e-05
-1.08912e-05
-3.49107e-07
1.18849e-06
-9.3967e-07
2.47936e-06
-1.55912e-06
2.93177e-06
-2.14487e-06
3.06268e-06
-2.69176e-06
3.1804e-06
-3.21293e-06
3.45262e-06
-3.72569e-06
3.97158e-06
-4.24274e-06
4.76861e-06
-4.76184e-06
5.78331e-06
-5.25853e-06
6.82203e-06
-5.69157e-06
7.54571e-06
-6.02488e-06
7.5331e-06
-6.25486e-06
6.43354e-06
-6.41458e-06
4.10558e-06
-6.5409e-06
5.89251e-07
-6.60734e-06
-4.04477e-06
-6.44582e-06
-9.71961e-06
-5.56947e-06
-1.59445e-05
-3.29961e-06
-1.99483e-05
-1.41908e-05
-4.20495e-07
1.60899e-06
-1.08927e-06
3.14814e-06
-1.75559e-06
3.59808e-06
-2.35297e-06
3.66006e-06
-2.87516e-06
3.70259e-06
-3.33024e-06
3.90771e-06
-3.72792e-06
4.36926e-06
-4.07427e-06
5.11497e-06
-4.36655e-06
6.07559e-06
-4.59168e-06
7.04715e-06
-4.73543e-06
7.68947e-06
-4.80122e-06
7.59889e-06
-4.82675e-06
6.45907e-06
-4.87774e-06
4.15657e-06
-5.0162e-06
7.27705e-07
-5.24285e-06
-3.81812e-06
-5.4242e-06
-9.53826e-06
-5.06778e-06
-1.6301e-05
-3.3207e-06
-2.16954e-05
-1.75115e-05
-5.00797e-07
2.10978e-06
-1.24277e-06
3.89012e-06
-1.93885e-06
4.29416e-06
-2.52463e-06
4.24584e-06
-2.99589e-06
4.17385e-06
-3.35742e-06
4.26923e-06
-3.61274e-06
4.62458e-06
-3.76339e-06
5.26562e-06
-3.80923e-06
6.12143e-06
-3.75186e-06
6.98978e-06
-3.6054e-06
7.54301e-06
-3.40953e-06
7.40301e-06
-3.23609e-06
6.28563e-06
-3.17524e-06
4.09573e-06
-3.3069e-06
8.59362e-07
-3.65405e-06
-3.47097e-06
-4.12823e-06
-9.06409e-06
-4.27599e-06
-1.61532e-05
-3.12004e-06
-2.28513e-05
-2.06315e-05
-5.95333e-07
2.70512e-06
-1.40307e-06
4.69785e-06
-2.10622e-06
4.99731e-06
-2.65284e-06
4.79246e-06
-3.04631e-06
4.56731e-06
-3.29132e-06
4.51424e-06
-3.38746e-06
4.72072e-06
-3.33312e-06
5.21128e-06
-3.13169e-06
5.92e-06
-2.79936e-06
6.65745e-06
-2.37679e-06
7.12044e-06
-1.93528e-06
6.9615e-06
-1.57376e-06
5.92411e-06
-1.40153e-06
3.9235e-06
-1.50724e-06
9.65076e-07
-1.93005e-06
-3.04817e-06
-2.63415e-06
-8.35999e-06
-3.24894e-06
-1.55384e-05
-2.72817e-06
-2.33721e-05
-2.33597e-05
-7.12448e-07
3.41756e-06
-1.5731e-06
5.5585e-06
-2.25061e-06
5.67483e-06
-2.72218e-06
5.26403e-06
-3.00714e-06
4.85228e-06
-3.11488e-06
4.62199e-06
-3.04382e-06
4.64966e-06
-2.78987e-06
4.95733e-06
-2.35833e-06
5.48846e-06
-1.77615e-06
6.07527e-06
-1.10519e-06
6.44948e-06
-4.43457e-07
6.29976e-06
7.86884e-08
5.40197e-06
3.77113e-07
3.62507e-06
3.2089e-07
1.0213e-06
-1.37715e-07
-2.58956e-06
-9.89248e-07
-7.50845e-06
-2.02075e-06
-1.45069e-05
-2.17206e-06
-2.32208e-05
-2.55318e-05
-8.64781e-07
4.28235e-06
-1.75282e-06
6.44654e-06
-2.35282e-06
6.27482e-06
-2.69701e-06
5.60822e-06
-2.83208e-06
4.98734e-06
-2.77804e-06
4.56795e-06
-2.53538e-06
4.40701e-06
-2.09755e-06
4.5195e-06
-1.46811e-06
4.85902e-06
-6.7733e-07
5.2845e-06
2.0003e-07
5.57212e-06
1.05724e-06
5.44255e-06
1.75381e-06
4.70539e-06
2.16304e-06
3.21585e-06
2.17999e-06
1.00434e-06
1.7428e-06
-2.15237e-06
7.93095e-07
-6.55874e-06
-5.94866e-07
-1.31189e-05
-1.44485e-06
-2.23708e-05
-2.69766e-05
-1.07073e-06
5.35308e-06
-1.93034e-06
7.30616e-06
-2.36356e-06
6.70804e-06
-2.49742e-06
5.74208e-06
-2.4197e-06
4.90962e-06
-2.16656e-06
4.31481e-06
-1.74302e-06
3.98347e-06
-1.13938e-06
3.91586e-06
-3.52573e-07
4.07221e-06
5.93129e-07
4.33879e-06
1.6265e-06
4.53875e-06
2.6349e-06
4.43415e-06
3.47237e-06
3.86793e-06
4.0087e-06
2.67952e-06
4.12614e-06
8.86897e-07
3.7383e-06
-1.76453e-06
2.74027e-06
-5.56071e-06
1.06039e-06
-1.14391e-05
-3.62194e-07
-2.09482e-05
-2.73388e-05
-1.35106e-06
6.70414e-06
-2.05318e-06
8.00827e-06
-2.15792e-06
6.81278e-06
-1.94764e-06
5.53181e-06
-1.56259e-06
4.52457e-06
-1.05411e-06
3.80632e-06
-4.2933e-07
3.35869e-06
3.27117e-07
3.15942e-06
1.22946e-06
3.16987e-06
2.27049e-06
3.29777e-06
3.39394e-06
3.4153e-06
4.49884e-06
3.32925e-06
5.4455e-06
2.92127e-06
6.09648e-06
2.02854e-06
6.32206e-06
6.61316e-07
5.9932e-06
-1.43567e-06
4.96274e-06
-4.53026e-06
3.00389e-06
-9.4802e-06
7.49942e-07
-1.86943e-05
-2.65889e-05
-1.68996e-06
8.39409e-06
-1.93041e-06
8.24873e-06
-1.41652e-06
6.29888e-06
-6.6795e-07
4.78324e-06
1.39213e-07
3.7174e-06
9.623e-07
2.98323e-06
1.80617e-06
2.51482e-06
2.70019e-06
2.2654e-06
3.67689e-06
2.19316e-06
4.74914e-06
2.22552e-06
5.88778e-06
2.27666e-06
7.01285e-06
2.20418e-06
8.00537e-06
1.92875e-06
8.72139e-06
1.31252e-06
9.02178e-06
3.60926e-07
8.72232e-06
-1.13621e-06
7.62145e-06
-3.42938e-06
5.33463e-06
-7.19339e-06
2.08991e-06
-1.54496e-05
-2.4499e-05
-1.82711e-06
1.02212e-05
-9.08242e-07
7.32986e-06
6.58033e-07
4.73261e-06
2.11759e-06
3.32368e-06
3.39533e-06
2.43967e-06
4.52291e-06
1.85565e-06
5.54572e-06
1.492e-06
6.51975e-06
1.29137e-06
7.50009e-06
1.21283e-06
8.52012e-06
1.20548e-06
9.57906e-06
1.21773e-06
1.06193e-05
1.1639e-06
1.15507e-05
9.97389e-07
1.22287e-05
6.34477e-07
1.25155e-05
7.41655e-08
1.21819e-05
-8.02571e-07
1.09601e-05
-2.20764e-06
8.34076e-06
-4.57402e-06
4.02269e-06
-1.11315e-05
-2.04763e-05
-5.60033e-08
1.02772e-05
3.09421e-06
4.17965e-06
5.78545e-06
2.04137e-06
7.7585e-06
1.35063e-06
9.2691e-06
9.29064e-07
1.04683e-05
6.56485e-07
1.14613e-05
4.98986e-07
1.23353e-05
4.17327e-07
1.31623e-05
3.85825e-07
1.39863e-05
3.81501e-07
1.4822e-05
3.82071e-07
1.56289e-05
3.56922e-07
1.63407e-05
2.85642e-07
1.68291e-05
1.46027e-07
1.6976e-05
-7.27292e-08
1.65638e-05
-3.90301e-07
1.52794e-05
-9.23308e-07
1.25666e-05
-1.86121e-06
7.04006e-06
-5.60494e-06
-1.34362e-05
1.02772e-05
1.44569e-05
1.64982e-05
1.78489e-05
1.87779e-05
1.94344e-05
1.99334e-05
2.03507e-05
2.07365e-05
2.1118e-05
2.15001e-05
2.1857e-05
2.21427e-05
2.22887e-05
2.2216e-05
2.18257e-05
2.09024e-05
1.90412e-05
1.34362e-05
)
;

boundaryField
{
    movingWall
    {
        type            calculated;
        value           uniform 0;
    }
    fixedWalls
    {
        type            calculated;
        value           uniform 0;
    }
    frontAndBack
    {
        type            empty;
        value           nonuniform 0();
    }
}


// ************************************************************************* //
