/*--------------------------------*- C++ -*----------------------------------*\
  =========                 |
  \\      /  F ield         | OpenFOAM: The Open Source CFD Toolbox
   \\    /   O peration     | Website:  https://openfoam.org
    \\  /    A nd           | Version:  7
     \\/     M anipulation  |
\*---------------------------------------------------------------------------*/
FoamFile
{
    version     2.0;
    format      ascii;
    class       volVectorField;
    location    "0.4";
    object      U;
}
// * * * * * * * * * * * * * * * * * * * * * * * * * * * * * * * * * * * * * //

dimensions      [0 1 -1 0 0 0 0];

internalField   nonuniform List<vector> 
400
(
(0.000464025 -0.000192484 0)
(0.000560896 4.22554e-05 0)
(-0.000399288 0.000145961 0)
(-0.00168123 0.000179276 0)
(-0.00313557 0.000201367 0)
(-0.00482633 0.000250375 0)
(-0.0069859 0.000348643 0)
(-0.00997268 0.000518832 0)
(-0.0142893 0.000796182 0)
(-0.0206159 0.00123174 0)
(-0.029772 0.00187566 0)
(-0.042443 0.00271191 0)
(-0.0584457 0.00352674 0)
(-0.0755372 0.00377853 0)
(-0.0884992 0.00269425 0)
(-0.089928 -0.000160602 0)
(-0.0739905 -0.00421338 0)
(-0.0422862 -0.00690114 0)
(-0.00708732 -0.00484427 0)
(0.00463509 0.000873997 0)
(0.000558507 -0.00047771 0)
(-0.00021813 0.000572135 0)
(-0.00346795 0.00115666 0)
(-0.00761425 0.00141866 0)
(-0.0123612 0.00163131 0)
(-0.017897 0.00199819 0)
(-0.0248435 0.00265799 0)
(-0.0341677 0.00374102 0)
(-0.0471643 0.00539806 0)
(-0.0653836 0.00776701 0)
(-0.0902703 0.0108261 0)
(-0.122182 0.0140739 0)
(-0.158632 0.0161332 0)
(-0.192509 0.0147021 0)
(-0.212299 0.00745986 0)
(-0.205965 -0.00596164 0)
(-0.167187 -0.0220746 0)
(-0.101282 -0.0318405 0)
(-0.0282452 -0.0233703 0)
(0.00382104 -0.000225285 0)
(0.000191798 -0.000395549 0)
(-0.00221158 0.00213916 0)
(-0.00820612 0.00365815 0)
(-0.0154899 0.00442696 0)
(-0.0237365 0.00509839 0)
(-0.0332749 0.00619026 0)
(-0.0450564 0.00807835 0)
(-0.060523 0.0110937 0)
(-0.0814928 0.0155329 0)
(-0.10986 0.0214907 0)
(-0.146799 0.0284247 0)
(-0.191216 0.0344926 0)
(-0.23778 0.0361566 0)
(-0.276115 0.0289456 0)
(-0.293143 0.00975248 0)
(-0.278218 -0.020251 0)
(-0.227565 -0.0533716 0)
(-0.146521 -0.0732513 0)
(-0.0527106 -0.0569005 0)
(-0.000875128 -0.00752845 0)
(-0.000427352 0.000387974 0)
(-0.00497872 0.00500356 0)
(-0.0141205 0.00773475 0)
(-0.0247132 0.00918228 0)
(-0.0364705 0.0105068 0)
(-0.0498619 0.0126337 0)
(-0.0660851 0.0162437 0)
(-0.0868766 0.0218912 0)
(-0.114251 0.0299371 0)
(-0.149934 0.0401646 0)
(-0.194229 0.0510272 0)
(-0.244327 0.0588314 0)
(-0.292922 0.0578197 0)
(-0.328949 0.0421233 0)
(-0.341232 0.00906278 0)
(-0.322511 -0.0381816 0)
(-0.270266 -0.0889626 0)
(-0.18618 -0.121419 0)
(-0.0812274 -0.101054 0)
(-0.00807748 -0.0223113 0)
(-0.00120691 0.00208403 0)
(-0.0082641 0.00935618 0)
(-0.020821 0.0134501 0)
(-0.0347442 0.0156323 0)
(-0.0498149 0.0176951 0)
(-0.0666078 0.0210234 0)
(-0.086451 0.0266182 0)
(-0.111162 0.0352125 0)
(-0.142633 0.0470765 0)
(-0.182067 0.0613973 0)
(-0.228744 0.0753211 0)
(-0.278625 0.0832931 0)
(-0.323916 0.0779429 0)
(-0.355021 0.0530852 0)
(-0.364168 0.00715928 0)
(-0.347072 -0.0553302 0)
(-0.300631 -0.122804 0)
(-0.221471 -0.170518 0)
(-0.113401 -0.153381 0)
(-0.0181683 -0.0463134 0)
(-0.002097 0.0048062 0)
(-0.0118964 0.0153256 0)
(-0.0279929 0.0208357 0)
(-0.0451046 0.0236888 0)
(-0.0630835 0.0264404 0)
(-0.0825447 0.030957 0)
(-0.104811 0.0385327 0)
(-0.131575 0.0499943 0)
(-0.164381 0.0653601 0)
(-0.203794 0.0830324 0)
(-0.248312 0.0988121 0)
(-0.293497 0.105642 0)
(-0.332382 0.0953411 0)
(-0.357952 0.0621992 0)
(-0.365845 0.00578675 0)
(-0.353706 -0.0691807 0)
(-0.317227 -0.1519 0)
(-0.248593 -0.217207 0)
(-0.145571 -0.211565 0)
(-0.031241 -0.0812637 0)
(-0.00308009 0.00865153 0)
(-0.0157709 0.0229786 0)
(-0.0353913 0.0298479 0)
(-0.0553893 0.0331745 0)
(-0.0756818 0.0364068 0)
(-0.0968461 0.0418872 0)
(-0.120069 0.0511482 0)
(-0.146768 0.0650193 0)
(-0.178042 0.0831554 0)
(-0.213923 0.103131 0)
(-0.252571 0.119588 0)
(-0.289931 0.124488 0)
(-0.320654 0.10953 0)
(-0.340499 0.0698521 0)
(-0.347869 0.00579918 0)
(-0.341698 -0.0785436 0)
(-0.317004 -0.174332 0)
(-0.262793 -0.258317 0)
(-0.172255 -0.271666 0)
(-0.0459594 -0.127952 0)
(-0.00416211 0.0136943 0)
(-0.0198376 0.032327 0)
(-0.0428414 0.0403677 0)
(-0.0652767 0.0438255 0)
(-0.087133 0.0471599 0)
(-0.108881 0.0531604 0)
(-0.131473 0.0635324 0)
(-0.155972 0.0790396 0)
(-0.18306 0.098941 0)
(-0.212466 0.120074 0)
(-0.242474 0.136233 0)
(-0.269961 0.138916 0)
(-0.291492 0.120171 0)
(-0.30529 0.0760395 0)
(-0.311837 0.00724912 0)
(-0.311223 -0.083146 0)
(-0.298723 -0.18901 0)
(-0.261188 -0.291142 0)
(-0.188816 -0.329015 0)
(-0.0592392 -0.18539 0)
(-0.00537275 0.0200071 0)
(-0.0241004 0.0433406 0)
(-0.0502371 0.052212 0)
(-0.0745292 0.0553091 0)
(-0.0970862 0.0582036 0)
(-0.118234 0.0640835 0)
(-0.138643 0.0747652 0)
(-0.159009 0.0909165 0)
(-0.179708 0.111446 0)
(-0.200423 0.132636 0)
(-0.219935 0.147785 0)
(-0.236357 0.148345 0)
(-0.248149 0.126967 0)
(-0.255552 0.0804943 0)
(-0.260593 0.00976336 0)
(-0.264523 -0.0833373 0)
(-0.26368 -0.195722 0)
(-0.243474 -0.313985 0)
(-0.193158 -0.379567 0)
(-0.0674888 -0.250441 0)
(-0.00677289 0.0276841 0)
(-0.0286231 0.0559598 0)
(-0.0575356 0.0651402 0)
(-0.082977 0.0672393 0)
(-0.105293 0.0690149 0)
(-0.124679 0.073987 0)
(-0.141525 0.0840287 0)
(-0.156204 0.0997203 0)
(-0.16891 0.119725 0)
(-0.179504 0.140002 0)
(-0.187507 0.153684 0)
(-0.192387 0.152479 0)
(-0.194337 0.129727 0)
(-0.195197 0.0829195 0)
(-0.198131 0.0128394 0)
(-0.20539 -0.0798157 0)
(-0.214944 -0.194953 0)
(-0.21129 -0.326174 0)
(-0.185649 -0.420465 0)
(-0.0686089 -0.318417 0)
(-0.00846815 0.0368671 0)
(-0.0335401 0.0700998 0)
(-0.0647406 0.0788504 0)
(-0.0904727 0.0791814 0)
(-0.111537 0.0790685 0)
(-0.128072 0.0822732 0)
(-0.140246 0.0906739 0)
(-0.148176 0.104795 0)
(-0.151972 0.123195 0)
(-0.151804 0.141752 0)
(-0.14805 0.153729 0)
(-0.141518 0.151282 0)
(-0.133925 0.128424 0)
(-0.128364 0.0831272 0)
(-0.128818 0.0159814 0)
(-0.138096 -0.0734521 0)
(-0.156238 -0.18767 0)
(-0.167163 -0.327821 0)
(-0.167963 -0.449851 0)
(-0.0625146 -0.384448 0)
(-0.0106298 0.047783 0)
(-0.0390694 0.0856421 0)
(-0.0718621 0.0929558 0)
(-0.0967955 0.0906372 0)
(-0.115479 0.0878398 0)
(-0.128139 0.08844 0)
(-0.134832 0.0942578 0)
(-0.135487 0.105792 0)
(-0.130174 0.121643 0)
(-0.119383 0.137843 0)
(-0.10432 0.148037 0)
(-0.087017 0.144951 0)
(-0.0704764 0.123204 0)
(-0.0587743 0.0810237 0)
(-0.0565014 0.0187213 0)
(-0.0663701 -0.0651965 0)
(-0.090942 -0.175188 0)
(-0.113536 -0.319578 0)
(-0.142011 -0.466563 0)
(-0.050095 -0.44443 0)
(-0.0135255 0.0607968 0)
(-0.0455245 0.102398 0)
(-0.0788258 0.106925 0)
(-0.101461 0.100993 0)
(-0.116371 0.0947699 0)
(-0.124089 0.0920629 0)
(-0.124711 0.0945401 0)
(-0.118052 0.102675 0)
(-0.104116 0.115227 0)
(-0.0835914 0.128589 0)
(-0.0583228 0.137009 0)
(-0.0313208 0.133881 0)
(-0.00664225 0.114384 0)
(0.0109968 0.076443 0)
(0.0162928 0.0205831 0)
(0.00741854 -0.0560055 0)
(-0.0212863 -0.159064 0)
(-0.0520093 -0.302494 0)
(-0.109176 -0.470049 0)
(-0.0319886 -0.494668 0)
(-0.017561 0.0764955 0)
(-0.0533095 0.120016 0)
(-0.0852576 0.119957 0)
(-0.103326 0.109407 0)
(-0.112512 0.0991705 0)
(-0.113924 0.0927159 0)
(-0.107882 0.0914185 0)
(-0.0941569 0.0956712 0)
(-0.0726215 0.104448 0)
(-0.0439138 0.114648 0)
(-0.0101687 0.121322 0)
(0.0250809 0.118556 0)
(0.0567993 0.102168 0)
(0.0802789 0.06943 0)
(0.0891943 0.0211245 0)
(0.0830002 -0.0468035 0)
(0.0522254 -0.140642 0)
(0.0170969 -0.277932 0)
(-0.0696693 -0.460516 0)
(-0.00778392 -0.531067 0)
(-0.0233236 0.0958272 0)
(-0.0628325 0.137786 0)
(-0.0899207 0.130759 0)
(-0.0997218 0.114605 0)
(-0.100189 0.100051 0)
(-0.0932511 0.0898207 0)
(-0.0796061 0.0847919 0)
(-0.0590161 0.0851523 0)
(-0.0311353 0.0900616 0)
(0.00376625 0.0969831 0)
(0.0436747 0.101901 0)
(0.085235 0.0996326 0)
(0.122701 0.0866761 0)
(0.151878 0.0598947 0)
(0.164798 0.0198152 0)
(0.162959 -0.0384615 0)
(0.131338 -0.120984 0)
(0.094693 -0.247124 0)
(-0.0218638 -0.438295 0)
(0.0246429 -0.549545 0)
(-0.0315489 0.120211 0)
(-0.0740107 0.154176 0)
(-0.089093 0.137075 0)
(-0.0844214 0.114527 0)
(-0.071588 0.0958753 0)
(-0.0533041 0.0824585 0)
(-0.0305538 0.0743811 0)
(-0.002987 0.0714529 0)
(0.0300788 0.0729197 0)
(0.0690687 0.0767513 0)
(0.112447 0.07992 0)
(0.157866 0.0780947 0)
(0.199091 0.0685097 0)
(0.233326 0.0478331 0)
(0.249829 0.0163416 0)
(0.253317 -0.0312172 0)
(0.220545 -0.100384 0)
(0.183163 -0.210176 0)
(0.03784 -0.401432 0)
(0.069423 -0.548583 0)
(-0.0425695 0.151001 0)
(-0.083683 0.165149 0)
(-0.0717069 0.134234 0)
(-0.0429235 0.105696 0)
(-0.0108815 0.0843369 0)
(0.0220628 0.0692746 0)
(0.0553648 0.0596423 0)
(0.0899333 0.0547348 0)
(0.126974 0.0537683 0)
(0.167904 0.0551284 0)
(0.211791 0.0567271 0)
(0.258043 0.0552029 0)
(0.299938 0.0485948 0)
(0.337244 0.0337839 0)
(0.355252 0.0109207 0)
(0.363348 -0.0247377 0)
(0.327283 -0.0782511 0)
(0.288093 -0.165886 0)
(0.113889 -0.344747 0)
(0.130635 -0.522778 0)
(-0.0529238 0.187511 0)
(-0.0723614 0.159135 0)
(-0.00619379 0.112925 0)
(0.0569345 0.0832524 0)
(0.111756 0.0629893 0)
(0.159779 0.0491591 0)
(0.202439 0.0403245 0)
(0.241985 0.0353766 0)
(0.280409 0.0334824 0)
(0.320252 0.0334308 0)
(0.361025 0.033918 0)
(0.404128 0.0326858 0)
(0.4423 0.0285217 0)
(0.478487 0.0191464 0)
(0.493919 0.00453415 0)
(0.50346 -0.0183562 0)
(0.461164 -0.0541228 0)
(0.418604 -0.11359 0)
(0.217131 -0.263603 0)
(0.217755 -0.457055 0)
(-0.0278118 0.227241 0)
(0.0470229 0.123989 0)
(0.182608 0.0701089 0)
(0.275837 0.0476934 0)
(0.344061 0.033876 0)
(0.397347 0.0247317 0)
(0.440431 0.0191226 0)
(0.477201 0.0160137 0)
(0.510388 0.0146821 0)
(0.543196 0.0143788 0)
(0.575339 0.0144012 0)
(0.60927 0.0136311 0)
(0.637937 0.0114167 0)
(0.666026 0.00671717 0)
(0.673968 -0.000657399 0)
(0.67951 -0.0116105 0)
(0.631661 -0.02994 0)
(0.587583 -0.0588989 0)
(0.374187 -0.158555 0)
(0.354277 -0.328788 0)
(0.403354 0.135032 0)
(0.501123 0.0668462 0)
(0.620148 0.0311353 0)
(0.692219 0.0173882 0)
(0.73611 0.010633 0)
(0.766326 0.00678808 0)
(0.788662 0.00466464 0)
(0.806543 0.00358127 0)
(0.822073 0.00312952 0)
(0.837266 0.00301358 0)
(0.851935 0.00298549 0)
(0.867256 0.00275415 0)
(0.879154 0.00209365 0)
(0.889933 0.000807487 0)
(0.888501 -0.00124374 0)
(0.885215 -0.00396698 0)
(0.84829 -0.00902599 0)
(0.815728 -0.0159742 0)
(0.660453 -0.0454368 0)
(0.607602 -0.118136 0)
)
;

boundaryField
{
    movingWall
    {
        type            fixedValue;
        value           uniform (1 0 0);
    }
    fixedWalls
    {
        type            noSlip;
    }
    frontAndBack
    {
        type            empty;
    }
}


// ************************************************************************* //
