/*--------------------------------*- C++ -*----------------------------------*\
  =========                 |
  \\      /  F ield         | OpenFOAM: The Open Source CFD Toolbox
   \\    /   O peration     | Website:  https://openfoam.org
    \\  /    A nd           | Version:  7
     \\/     M anipulation  |
\*---------------------------------------------------------------------------*/
FoamFile
{
    version     2.0;
    format      ascii;
    class       volScalarField;
    location    "0.1";
    object      p;
}
// * * * * * * * * * * * * * * * * * * * * * * * * * * * * * * * * * * * * * //

dimensions      [0 2 -2 0 0 0 0];

internalField   nonuniform List<scalar> 
400
(
5.36261e-09
-0.00370036
-0.00551356
-0.00560994
-0.00411498
-0.00119171
0.00309745
0.00877734
0.0159203
0.0246446
0.0351144
0.0475178
0.061986
0.0784167
0.0961696
0.113682
0.128272
0.136769
0.137292
0.130336
0.000721174
-0.00250121
-0.00383541
-0.00380159
-0.00238001
0.000388987
0.00450662
0.0100238
0.0170161
0.0255875
0.0358697
0.0479985
0.0620394
0.0778327
0.0947346
0.111292
0.125091
0.133387
0.134666
0.12868
0.00164564
-0.00161675
-0.00263088
-0.00250368
-0.00114793
0.00147895
0.00543138
0.010785
0.0176176
0.0260185
0.0360932
0.0479444
0.0616095
0.0769278
0.093309
0.109418
0.122986
0.131403
0.133154
0.126857
0.00250179
-0.00117387
-0.00203486
-0.00186608
-0.00057684
0.00192413
0.00573019
0.0109354
0.0176149
0.0258413
0.0356971
0.0472684
0.0605987
0.0755783
0.0917261
0.107845
0.121725
0.130656
0.132771
0.125338
0.00303463
-0.00121799
-0.00201342
-0.00184152
-0.000624782
0.00176341
0.00544536
0.0105251
0.0170669
0.0251196
0.0347401
0.0460034
0.0589779
0.0736404
0.0896704
0.106057
0.12065
0.130533
0.133219
0.124371
0.00298273
-0.00190072
-0.00266892
-0.00251268
-0.00136169
0.000941596
0.00453943
0.00953503
0.0159713
0.0238638
0.0332373
0.044155
0.0567206
0.071024
0.0869549
0.10376
0.119414
0.130759
0.13444
0.12418
0.00210923
-0.003405
-0.00414444
-0.00399353
-0.00287623
-0.000605167
0.00297271
0.00794772
0.0143294
0.0220897
0.0312129
0.0417459
0.0538307
0.0676881
0.0834647
0.100756
0.117776
0.131174
0.13647
0.125065
0.000186761
-0.00591322
-0.00657268
-0.00637525
-0.00522482
-0.00290332
0.000744432
0.0057836
0.0121788
0.0198485
0.0287278
0.0388396
0.0503598
0.063647
0.0791424
0.0968901
0.115519
0.131636
0.139383
0.127487
-0.003023
-0.00960708
-0.0100685
-0.00971738
-0.00842364
-0.00593556
-0.00210282
0.00310402
0.00959519
0.0172282
0.0258814
0.0355446
0.0464175
0.0589907
0.0740208
0.0920981
0.112492
0.132034
0.143297
0.132143
-0.0077965
-0.0146695
-0.0147215
-0.0140384
-0.0124399
-0.00963425
-0.00547903
1.27556e-05
0.00669185
0.0143516
0.0228101
0.0320164
0.0421796
0.0539056
0.0682649
0.0864692
0.108676
0.132345
0.148405
0.140023
-0.0144875
-0.0212821
-0.0205798
-0.0192957
-0.0171738
-0.0138671
-0.0092369
-0.00333834
0.00362164
0.0113758
0.0196845
0.0284532
0.0378876
0.0486842
0.062203
0.0803113
0.104278
0.132697
0.15501
0.152418
-0.023588
-0.0296155
-0.0276215
-0.0253558
-0.0224322
-0.0184178
-0.0131596
-0.00674346
0.000577522
0.00848771
0.0167007
0.0250835
0.0338324
0.0437114
0.0563274
0.0741863
0.0998054
0.133469
0.163597
0.170914
-0.0358279
-0.0398046
-0.0357107
-0.0319532
-0.0278976
-0.0229661
-0.0169511
-0.009941
-0.00221185
0.00589424
0.0140641
0.0221417
0.0303196
0.039417
0.0512419
0.0688786
0.0960984
0.135378
0.174907
0.197404
-0.0523468
-0.0518919
-0.0445266
-0.0386361
-0.0330944
-0.0270732
-0.020235
-0.0126215
-0.00449515
0.00380539
0.0119672
0.0198357
0.0276188
0.0361973
0.0475499
0.0652709
0.0942137
0.139466
0.189954
0.23423
-0.0750026
-0.0657257
-0.053471
-0.0447104
-0.0373683
-0.030188
-0.0225766
-0.014455
-0.00602592
0.00240774
0.0105618
0.0183112
0.0259075
0.0343185
0.0456953
0.0641134
0.0951835
0.146922
0.209858
0.284535
-0.106851
-0.0808468
-0.0616293
-0.0492377
-0.039923
-0.0317102
-0.0235511
-0.0151522
-0.00661289
0.00182498
0.00992587
0.0176172
0.0252213
0.033828
0.0457835
0.0655956
0.0997917
0.158751
0.235577
0.353089
-0.152515
-0.0962725
-0.0677152
-0.0511066
-0.0399509
-0.0311305
-0.0228672
-0.0145603
-0.00618763
0.00207212
0.0100333
0.0176816
0.0254227
0.0344922
0.0474639
0.0693816
0.107607
0.175176
0.268558
0.447431
-0.218277
-0.108777
-0.0687629
-0.0487056
-0.0366399
-0.0280924
-0.0204226
-0.012698
-0.00481903
0.00305721
0.0107654
0.0183272
0.0262115
0.0357792
0.0498001
0.0738733
0.116355
0.194151
0.312374
0.577349
-0.313808
-0.108376
-0.0568132
-0.0389415
-0.0288187
-0.0221845
-0.0161406
-0.00961789
-0.00259525
0.00468515
0.0120066
0.0193666
0.0272294
0.03698
0.0514381
0.0764528
0.12123
0.207791
0.359463
0.758013
-0.443747
-0.08453
-0.0280758
-0.0213416
-0.0170502
-0.0141443
-0.010661
-0.0058217
0.000102808
0.00666328
0.0135111
0.0205491
0.0281547
0.0375988
0.0515724
0.0756653
0.119072
0.207404
0.387888
0.959868
)
;

boundaryField
{
    movingWall
    {
        type            zeroGradient;
    }
    fixedWalls
    {
        type            zeroGradient;
    }
    frontAndBack
    {
        type            empty;
    }
}


// ************************************************************************* //
