/*--------------------------------*- C++ -*----------------------------------*\
  =========                 |
  \\      /  F ield         | OpenFOAM: The Open Source CFD Toolbox
   \\    /   O peration     | Website:  https://openfoam.org
    \\  /    A nd           | Version:  7
     \\/     M anipulation  |
\*---------------------------------------------------------------------------*/
FoamFile
{
    version     2.0;
    format      ascii;
    class       surfaceScalarField;
    location    "0.1";
    object      phi;
}
// * * * * * * * * * * * * * * * * * * * * * * * * * * * * * * * * * * * * * //

dimensions      [0 3 -1 0 0 0 0];

internalField   nonuniform List<scalar> 
760
(
1.76517e-09
-1.76554e-09
-8.326e-08
8.50253e-08
-2.02562e-07
1.19302e-07
-3.26642e-07
1.2408e-07
-4.43995e-07
1.17353e-07
-5.51688e-07
1.07694e-07
-6.50077e-07
9.83883e-08
-7.4043e-07
9.03533e-08
-8.24104e-07
8.3674e-08
-9.01693e-07
7.75885e-08
-9.71704e-07
7.0012e-08
-1.02865e-06
5.69411e-08
-1.06082e-06
3.21772e-08
-1.04896e-06
-1.18614e-08
-9.68142e-07
-8.08199e-08
-7.97127e-07
-1.71015e-07
-5.38105e-07
-2.59022e-07
-2.40951e-07
-2.97155e-07
-1.59846e-08
-2.24966e-07
-1.59846e-08
-5.88398e-08
5.70746e-08
-2.9161e-07
3.17795e-07
-6.03513e-07
4.31206e-07
-9.29484e-07
4.50051e-07
-1.2384e-06
4.26272e-07
-1.51999e-06
3.89278e-07
-1.77345e-06
3.51848e-07
-2.00137e-06
3.18273e-07
-2.20671e-06
2.89018e-07
-2.39028e-06
2.61155e-07
-2.54744e-06
2.27172e-07
-2.664e-06
1.73508e-07
-2.71218e-06
8.03562e-08
-2.64923e-06
-7.48117e-08
-2.42388e-06
-3.06174e-07
-1.99736e-06
-5.97538e-07
-1.38264e-06
-8.73739e-07
-6.90402e-07
-9.89392e-07
-1.45106e-07
-7.70262e-07
-1.61091e-07
-1.39579e-07
1.96654e-07
-5.10364e-07
6.8858e-07
-9.86039e-07
9.06882e-07
-1.4774e-06
9.41414e-07
-1.93971e-06
8.8858e-07
-2.35696e-06
8.06527e-07
-2.72732e-06
7.22208e-07
-3.05449e-06
6.4544e-07
-3.34286e-06
5.77389e-07
-3.5936e-06
5.11897e-07
-3.80014e-06
4.33711e-07
-3.94292e-06
3.16288e-07
-3.98473e-06
1.22171e-07
-3.86993e-06
-1.89619e-07
-3.5333e-06
-6.42801e-07
-2.92639e-06
-1.20445e-06
-2.06527e-06
-1.73485e-06
-1.08929e-06
-1.96537e-06
-2.88862e-07
-1.57069e-06
-4.49953e-07
-2.21493e-07
4.18147e-07
-7.23079e-07
1.19017e-06
-1.34061e-06
1.52441e-06
-1.9669e-06
1.5677e-06
-2.54864e-06
1.47032e-06
-3.06683e-06
1.32472e-06
-3.51979e-06
1.17517e-06
-3.91288e-06
1.03852e-06
-4.25239e-06
9.16901e-07
-4.54075e-06
8.00254e-07
-4.77132e-06
6.64283e-07
-4.92274e-06
4.67711e-07
-4.95397e-06
1.53392e-07
-4.80324e-06
-3.40349e-07
-4.39681e-06
-1.04923e-06
-3.6754e-06
-1.92586e-06
-2.64527e-06
-2.76498e-06
-1.44975e-06
-3.16089e-06
-4.23006e-07
-2.59744e-06
-8.72959e-07
-2.99542e-07
7.17689e-07
-9.22891e-07
1.81351e-06
-1.66296e-06
2.26448e-06
-2.39723e-06
2.30197e-06
-3.0678e-06
2.1409e-06
-3.65552e-06
1.91243e-06
-4.16049e-06
1.68014e-06
-4.59069e-06
1.46872e-06
-4.95513e-06
1.28134e-06
-5.25864e-06
1.10377e-06
-5.49659e-06
9.02233e-07
-5.64912e-06
6.2024e-07
-5.67581e-06
1.80086e-07
-5.51341e-06
-5.02752e-07
-5.0817e-06
-1.48094e-06
-4.30632e-06
-2.70123e-06
-3.16984e-06
-3.90146e-06
-1.79836e-06
-4.53238e-06
-5.57244e-07
-3.83855e-06
-1.4302e-06
-3.73138e-07
1.09083e-06
-1.10838e-06
2.54875e-06
-1.95263e-06
3.10873e-06
-2.76982e-06
3.11917e-06
-3.50089e-06
2.87197e-06
-4.12927e-06
2.54082e-06
-4.65867e-06
2.20954e-06
-5.10077e-06
1.91082e-06
-5.46816e-06
1.64872e-06
-5.76923e-06
1.40484e-06
-6.0032e-06
1.1362e-06
-6.15456e-06
7.71601e-07
-6.18722e-06
2.12751e-07
-6.03995e-06
-6.5002e-07
-5.62737e-06
-1.89353e-06
-4.85586e-06
-3.47274e-06
-3.67133e-06
-5.08599e-06
-2.1615e-06
-6.04221e-06
-7.07618e-07
-5.29244e-06
-2.13782e-06
-4.43809e-07
1.53464e-06
-1.28121e-06
3.38616e-06
-2.21133e-06
4.03884e-06
-3.08682e-06
3.99466e-06
-3.85092e-06
3.63606e-06
-4.4925e-06
3.1824e-06
-5.02064e-06
2.73768e-06
-5.45177e-06
2.34195e-06
-5.80278e-06
1.99974e-06
-6.08648e-06
1.68854e-06
-6.30731e-06
1.35703e-06
-6.45635e-06
9.20639e-07
-6.50491e-06
2.61312e-07
-6.39717e-06
-7.57757e-07
-6.04483e-06
-2.24587e-06
-5.33331e-06
-4.18427e-06
-4.16169e-06
-6.25761e-06
-2.55692e-06
-7.64697e-06
-8.90437e-07
-6.95892e-06
-3.02826e-06
-5.1453e-07
2.04916e-06
-1.4448e-06
4.31643e-06
-2.44129e-06
5.03533e-06
-3.34914e-06
4.90251e-06
-4.11798e-06
4.4049e-06
-4.74514e-06
3.80956e-06
-5.24685e-06
3.23939e-06
-5.64515e-06
2.74025e-06
-5.96161e-06
2.3162e-06
-6.21374e-06
1.94067e-06
-6.41192e-06
1.55521e-06
-6.55525e-06
1.06397e-06
-6.62498e-06
3.31035e-07
-6.5744e-06
-8.0833e-07
-6.31663e-06
-2.50364e-06
-5.71863e-06
-4.78227e-06
-4.6276e-06
-7.34863e-06
-2.98733e-06
-9.28725e-06
-1.11894e-06
-8.82731e-06
-4.1472e-06
-5.89446e-07
2.63861e-06
-1.60323e-06
5.33021e-06
-2.64358e-06
6.07568e-06
-3.55421e-06
5.81314e-06
-4.29653e-06
5.14722e-06
-4.87976e-06
4.39278e-06
-5.32896e-06
3.6886e-06
-5.67233e-06
3.08362e-06
-5.93599e-06
2.57986e-06
-6.14181e-06
2.14649e-06
-6.30587e-06
1.71927e-06
-6.43578e-06
1.19388e-06
-6.52456e-06
4.19814e-07
-6.53869e-06
-7.94197e-07
-6.39942e-06
-2.6429e-06
-5.9632e-06
-5.21849e-06
-5.02774e-06
-8.28409e-06
-3.4347e-06
-1.08803e-05
-1.39962e-06
-1.08624e-05
-5.54682e-06
-6.73963e-07
3.31257e-06
-1.76034e-06
6.41659e-06
-2.81604e-06
7.13139e-06
-3.69324e-06
6.69034e-06
-4.37235e-06
5.82634e-06
-4.87837e-06
4.8988e-06
-5.24679e-06
4.05702e-06
-5.51205e-06
3.34888e-06
-5.70404e-06
2.77186e-06
-5.84781e-06
2.29026e-06
-5.96399e-06
1.83544e-06
-6.06801e-06
1.2979e-06
-6.16553e-06
5.17333e-07
-6.2401e-06
-7.19624e-07
-6.22981e-06
-2.6532e-06
-5.994e-06
-5.45431e-06
-5.29295e-06
-8.98514e-06
-3.85572e-06
-1.23175e-05
-1.72751e-06
-1.29906e-05
-7.27432e-06
-7.75114e-07
4.08769e-06
-1.91864e-06
7.56011e-06
-2.95077e-06
8.16352e-06
-3.74778e-06
7.48734e-06
-4.31877e-06
6.39733e-06
-4.70892e-06
5.28895e-06
-4.96532e-06
4.31342e-06
-5.12799e-06
3.51155e-06
-5.22907e-06
2.87294e-06
-5.29479e-06
2.35597e-06
-5.34811e-06
1.88877e-06
-5.41047e-06
1.36027e-06
-5.49962e-06
6.06475e-07
-5.61907e-06
-6.0017e-07
-5.73308e-06
-2.53919e-06
-5.72175e-06
-5.46563e-06
-5.33057e-06
-9.37633e-06
-4.17965e-06
-1.34684e-05
-2.08072e-06
-1.50895e-05
-9.35504e-06
-9.02061e-07
4.98975e-06
-2.07745e-06
8.73551e-06
-3.03005e-06
9.11612e-06
-3.68482e-06
8.14211e-06
-4.09199e-06
6.8045e-06
-4.32134e-06
5.5183e-06
-4.43164e-06
4.42373e-06
-4.46679e-06
3.5467e-06
-4.45864e-06
2.86478e-06
-4.43173e-06
2.32907e-06
-4.40844e-06
1.86548e-06
-4.41319e-06
1.36502e-06
-4.47371e-06
6.66991e-07
-4.61437e-06
-4.59508e-07
-4.83355e-06
-2.32001e-06
-5.05199e-06
-5.24719e-06
-5.03286e-06
-9.39546e-06
-4.31011e-06
-1.41912e-05
-2.41509e-06
-1.69846e-05
-1.17701e-05
-1.06626e-06
6.05601e-06
-2.22888e-06
9.89812e-06
-3.01944e-06
9.90668e-06
-3.44938e-06
8.57205e-06
-3.62477e-06
6.97989e-06
-3.64284e-06
5.53637e-06
-3.57207e-06
4.35296e-06
-3.45658e-06
3.4312e-06
-3.32418e-06
2.73239e-06
-3.19426e-06
2.19914e-06
-3.08504e-06
1.75626e-06
-3.02028e-06
1.30026e-06
-3.03408e-06
6.80797e-07
-3.16984e-06
-3.23751e-07
-3.46435e-06
-2.0255e-06
-3.8971e-06
-4.81444e-06
-4.28837e-06
-9.00419e-06
-4.13131e-06
-1.43482e-05
-2.66112e-06
-1.84547e-05
-1.44313e-05
-1.27983e-06
7.33584e-06
-2.34841e-06
1.09667e-05
-2.85474e-06
1.0413e-05
-2.95253e-06
8.66985e-06
-2.81753e-06
6.84488e-06
-2.57252e-06
5.29136e-06
-2.28948e-06
4.06992e-06
-2.00641e-06
3.14813e-06
-1.74192e-06
2.46789e-06
-1.50611e-06
1.96334e-06
-1.30959e-06
1.55973e-06
-1.17171e-06
1.16238e-06
-1.12855e-06
6.37634e-07
-1.23792e-06
-2.14372e-07
-1.57397e-06
-1.68946e-06
-2.18627e-06
-4.20215e-06
-2.99359e-06
-8.19686e-06
-3.51659e-06
-1.38253e-05
-2.72187e-06
-1.92495e-05
-1.71531e-05
-1.54707e-06
8.88291e-06
-2.37253e-06
1.17922e-05
-2.41728e-06
1.04578e-05
-2.05216e-06
8.30472e-06
-1.52631e-06
6.31903e-06
-9.75395e-07
4.74044e-06
-4.61835e-07
3.55636e-06
-7.64828e-09
2.69394e-06
3.84319e-07
2.07593e-06
7.17365e-07
1.63029e-06
9.91502e-07
1.28559e-06
1.19469e-06
9.59193e-07
1.29306e-06
5.3927e-07
1.22058e-06
-1.41894e-07
8.72353e-07
-1.34123e-06
1.24032e-07
-3.45383e-06
-1.06104e-06
-7.01178e-06
-2.33417e-06
-1.25521e-05
-2.47578e-06
-1.91078e-05
-1.96289e-05
-1.8306e-06
1.07135e-05
-2.14556e-06
1.21071e-05
-1.48814e-06
9.80034e-06
-5.23486e-07
7.34007e-06
4.52011e-07
5.34353e-06
1.32225e-06
3.8702e-06
2.0563e-06
2.82232e-06
2.66107e-06
2.08917e-06
3.15642e-06
1.58057e-06
3.56236e-06
1.22436e-06
3.89103e-06
9.56927e-07
4.13906e-06
7.11163e-07
4.27759e-06
4.00735e-07
4.23867e-06
-1.02973e-07
3.89877e-06
-1.00134e-06
3.07595e-06
-2.631e-06
1.57916e-06
-5.515e-06
-4.4839e-07
-1.05246e-05
-1.76743e-06
-1.77888e-05
-2.13963e-05
-1.95007e-06
1.26636e-05
-1.30249e-06
1.14595e-05
3.28557e-07
8.16929e-06
1.97813e-06
5.6905e-06
3.39101e-06
3.93065e-06
4.53004e-06
2.73117e-06
5.42417e-06
1.92819e-06
6.12161e-06
1.39173e-06
6.6692e-06
1.03298e-06
7.10415e-06
7.89413e-07
7.44975e-06
6.11326e-07
7.7104e-06
4.50511e-07
7.86308e-06
2.48055e-07
7.84279e-06
-8.26793e-08
7.51998e-06
-6.78531e-07
6.67348e-06
-1.7845e-06
4.98596e-06
-3.82747e-06
2.30246e-06
-7.84108e-06
-2.63785e-07
-1.52226e-05
-2.16601e-05
-1.28198e-06
1.39456e-05
9.60063e-07
9.2175e-06
3.70892e-06
5.42044e-06
5.9381e-06
3.46131e-06
7.6212e-06
2.24755e-06
8.86791e-06
1.48447e-06
9.78711e-06
1.00899e-06
1.04703e-05
7.08514e-07
1.09873e-05
5.16042e-07
1.13868e-05
3.89833e-07
1.16986e-05
2.99619e-07
1.19311e-05
2.18e-07
1.20663e-05
1.12862e-07
1.2046e-05
-6.24581e-08
1.17488e-05
-3.81251e-07
1.09455e-05
-9.81252e-07
9.24301e-06
-2.12496e-06
6.11746e-06
-4.71553e-06
1.989e-06
-1.10941e-05
-1.96711e-05
1.86242e-06
1.20831e-05
6.27431e-06
4.8056e-06
9.62912e-06
2.06563e-06
1.1904e-05
1.18647e-06
1.34394e-05
7.12085e-07
1.44862e-05
4.37725e-07
1.52124e-05
2.8277e-07
1.57286e-05
1.92339e-07
1.61069e-05
1.37747e-07
1.63932e-05
1.03518e-07
1.66134e-05
7.93948e-08
1.67749e-05
5.64938e-08
1.68632e-05
2.45427e-08
1.68322e-05
-3.14642e-08
1.65855e-05
-1.34516e-07
1.59323e-05
-3.28065e-07
1.4506e-05
-6.9861e-07
1.14894e-05
-1.69901e-06
5.82584e-06
-5.43052e-06
-1.38453e-05
1.20831e-05
1.68887e-05
1.89544e-05
2.01408e-05
2.08529e-05
2.12907e-05
2.15734e-05
2.17658e-05
2.19035e-05
2.2007e-05
2.20864e-05
2.21429e-05
2.21675e-05
2.2136e-05
2.20015e-05
2.16734e-05
2.09748e-05
1.92758e-05
1.38453e-05
)
;

boundaryField
{
    movingWall
    {
        type            calculated;
        value           uniform 0;
    }
    fixedWalls
    {
        type            calculated;
        value           uniform 0;
    }
    frontAndBack
    {
        type            empty;
        value           nonuniform 0();
    }
}


// ************************************************************************* //
