/*--------------------------------*- C++ -*----------------------------------*\
  =========                 |
  \\      /  F ield         | OpenFOAM: The Open Source CFD Toolbox
   \\    /   O peration     | Website:  https://openfoam.org
    \\  /    A nd           | Version:  7
     \\/     M anipulation  |
\*---------------------------------------------------------------------------*/
FoamFile
{
    version     2.0;
    format      ascii;
    class       volVectorField;
    location    "0.1";
    object      U;
}
// * * * * * * * * * * * * * * * * * * * * * * * * * * * * * * * * * * * * * //

dimensions      [0 1 -1 0 0 0 0];

internalField   nonuniform List<vector> 
400
(
(0.000481707 -0.00018496 0)
(-0.00105135 0.000570493 0)
(-0.00557641 0.000845708 0)
(-0.0106058 0.000879326 0)
(-0.0154964 0.000831765 0)
(-0.0200116 0.000769458 0)
(-0.0241271 0.000713866 0)
(-0.0278908 0.000669186 0)
(-0.0313632 0.000635868 0)
(-0.0345927 0.000609207 0)
(-0.0375743 0.000574622 0)
(-0.0401836 0.000501564 0)
(-0.0420886 0.000339308 0)
(-0.0426637 2.12466e-05 0)
(-0.0409785 -0.000509237 0)
(-0.0360029 -0.0012349 0)
(-0.0272116 -0.00196859 0)
(-0.0155043 -0.00230429 0)
(-0.00385342 -0.00170357 0)
(0.000721188 0.000121585 0)
(-0.000150994 0.0002311 0)
(-0.00564897 0.0033944 0)
(-0.0175464 0.00472637 0)
(-0.0307391 0.00494213 0)
(-0.0436092 0.00468891 0)
(-0.0554624 0.00430357 0)
(-0.0661477 0.00392262 0)
(-0.0757447 0.00358792 0)
(-0.0843879 0.00330399 0)
(-0.0921788 0.00304022 0)
(-0.0990739 0.00271396 0)
(-0.104734 0.0021694 0)
(-0.108344 0.0011701 0)
(-0.108471 -0.000565077 0)
(-0.103112 -0.00323234 0)
(-0.0902094 -0.00666786 0)
(-0.0689091 -0.00997593 0)
(-0.0413287 -0.0113796 0)
(-0.0138327 -0.00870346 0)
(-0.000599157 -0.00116923 0)
(-0.00132771 0.00217432 0)
(-0.0110822 0.00938133 0)
(-0.0294681 0.0125894 0)
(-0.0494365 0.0131347 0)
(-0.0687662 0.0124406 0)
(-0.0864233 0.0113439 0)
(-0.102151 0.0102212 0)
(-0.116052 0.00920485 0)
(-0.128327 0.0083106 0)
(-0.139125 0.00745309 0)
(-0.148385 0.00641562 0)
(-0.155632 0.00481286 0)
(-0.159759 0.00209065 0)
(-0.158873 -0.00236857 0)
(-0.150394 -0.00893503 0)
(-0.131716 -0.0171308 0)
(-0.101757 -0.0248629 0)
(-0.0630916 -0.02812 0)
(-0.0237023 -0.0221167 0)
(-0.00259946 -0.00548446 0)
(-0.00262186 0.00580777 0)
(-0.0165823 0.0181843 0)
(-0.0408175 0.0236684 0)
(-0.0664538 0.0244977 0)
(-0.0909208 0.0230811 0)
(-0.112993 0.0208974 0)
(-0.132375 0.0186458 0)
(-0.149225 0.0165879 0)
(-0.163821 0.0147562 0)
(-0.176388 0.0129918 0)
(-0.186891 0.0109046 0)
(-0.194823 0.00782338 0)
(-0.198967 0.00281117 0)
(-0.19723 -0.00514573 0)
(-0.186734 -0.0166233 0)
(-0.16447 -0.0307967 0)
(-0.1289 -0.0442119 0)
(-0.0822636 -0.0501965 0)
(-0.0330356 -0.0405645 0)
(-0.00462455 -0.0126237 0)
(-0.00388453 0.0110354 0)
(-0.0218504 0.0294977 0)
(-0.0513605 0.0373587 0)
(-0.0816956 0.0382511 0)
(-0.110114 0.035766 0)
(-0.13534 0.0321182 0)
(-0.157126 0.0283791 0)
(-0.175728 0.0249622 0)
(-0.191538 0.0219208 0)
(-0.204884 0.0190133 0)
(-0.215823 0.0156596 0)
(-0.223918 0.0108827 0)
(-0.228002 0.0033378 0)
(-0.225981 -0.00842379 0)
(-0.214842 -0.0252545 0)
(-0.191168 -0.0460947 0)
(-0.152625 -0.0662179 0)
(-0.100353 -0.0761062 0)
(-0.0424413 -0.0633066 0)
(-0.00674156 -0.0223955 0)
(-0.00509476 0.0177786 0)
(-0.0268276 0.0431336 0)
(-0.0610494 0.0532912 0)
(-0.0951788 0.053884 0)
(-0.126446 0.0499137 0)
(-0.153659 0.0444105 0)
(-0.176707 0.038846 0)
(-0.195996 0.0337953 0)
(-0.212067 0.0293322 0)
(-0.225389 0.0251299 0)
(-0.236162 0.0204183 0)
(-0.244116 0.0139165 0)
(-0.248267 0.00386464 0)
(-0.24668 -0.0116652 0)
(-0.236329 -0.033926 0)
(-0.213364 -0.0618559 0)
(-0.174334 -0.0897228 0)
(-0.118552 -0.105112 0)
(-0.0528204 -0.0902557 0)
(-0.00927311 -0.0349469 0)
(-0.00629233 0.0259566 0)
(-0.0315833 0.0589069 0)
(-0.0699495 0.0711235 0)
(-0.106976 0.0709277 0)
(-0.140016 0.0649929 0)
(-0.168094 0.0572354 0)
(-0.191326 0.0495363 0)
(-0.210325 0.0426277 0)
(-0.225807 0.0365987 0)
(-0.238409 0.0310391 0)
(-0.248519 0.0250008 0)
(-0.256099 0.0169178 0)
(-0.26046 0.00462204 0)
(-0.259964 -0.0143401 0)
(-0.251706 -0.0417841 0)
(-0.231442 -0.0769756 0)
(-0.194405 -0.113609 0)
(-0.137434 -0.136506 0)
(-0.0650035 -0.121479 0)
(-0.0126303 -0.0507721 0)
(-0.00755792 0.0355361 0)
(-0.036267 0.0766296 0)
(-0.0781801 0.0904871 0)
(-0.117148 0.0888886 0)
(-0.150837 0.080458 0)
(-0.178638 0.0700525 0)
(-0.200987 0.0599506 0)
(-0.21875 0.0510207 0)
(-0.23284 0.0433545 0)
(-0.244071 0.0364602 0)
(-0.253032 0.029233 0)
(-0.259962 0.0198564 0)
(-0.264542 0.00577961 0)
(-0.265559 -0.0160103 0)
(-0.260399 -0.0480615 0)
(-0.244593 -0.0903576 0)
(-0.212068 -0.136615 0)
(-0.156708 -0.169317 0)
(-0.0795053 -0.156937 0)
(-0.017239 -0.0706722 0)
(-0.00900992 0.0465555 0)
(-0.0410827 0.0961188 0)
(-0.0858583 0.110971 0)
(-0.125661 0.107222 0)
(-0.158738 0.0957226 0)
(-0.185021 0.0822974 0)
(-0.205365 0.0695817 0)
(-0.220928 0.058539 0)
(-0.232822 0.0492388 0)
(-0.242026 0.0411075 0)
(-0.249315 0.0329099 0)
(-0.255201 0.0226284 0)
(-0.259777 0.00737924 0)
(-0.262367 -0.0164094 0)
(-0.260867 -0.0521579 0)
(-0.250905 -0.100968 0)
(-0.225376 -0.157312 0)
(-0.175026 -0.202154 0)
(-0.0962732 -0.196247 0)
(-0.0234628 -0.0956615 0)
(-0.0108131 0.0591496 0)
(-0.0462784 0.117181 0)
(-0.0930387 0.132081 0)
(-0.13229 0.125284 0)
(-0.163241 0.110118 0)
(-0.186581 0.0933497 0)
(-0.203683 0.0778906 0)
(-0.216021 0.0647319 0)
(-0.22489 0.0538814 0)
(-0.231387 0.0446759 0)
(-0.236424 0.0357784 0)
(-0.240744 0.0250314 0)
(-0.244842 0.00929844 0)
(-0.248657 -0.0154969 0)
(-0.250842 -0.0537117 0)
(-0.247579 -0.107912 0)
(-0.231319 -0.17414 0)
(-0.189896 -0.23311 0)
(-0.114419 -0.238393 0)
(-0.031475 -0.126795 0)
(-0.0131967 0.0735774 0)
(-0.0521406 0.139569 0)
(-0.0996348 0.153165 0)
(-0.136492 0.142265 0)
(-0.163416 0.122841 0)
(-0.182118 0.102497 0)
(-0.194581 0.0842841 0)
(-0.202592 0.0691222 0)
(-0.20758 0.0568983 0)
(-0.210686 0.0468431 0)
(-0.212872 0.0375437 0)
(-0.215025 0.0267738 0)
(-0.21798 0.0112545 0)
(-0.222317 -0.0134729 0)
(-0.227661 -0.0526514 0)
(-0.231296 -0.110527 0)
(-0.226103 -0.185504 0)
(-0.197756 -0.259764 0)
(-0.131984 -0.281461 0)
(-0.0410497 -0.164895 0)
(-0.0164779 0.0902626 0)
(-0.0589827 0.162904 0)
(-0.105291 0.173309 0)
(-0.137211 0.157099 0)
(-0.157681 0.132896 0)
(-0.169714 0.108904 0)
(-0.175969 0.0881063 0)
(-0.178498 0.0712103 0)
(-0.178767 0.0579063 0)
(-0.177853 0.0472935 0)
(-0.176652 0.0379056 0)
(-0.17607 0.0275217 0)
(-0.177169 0.0128551 0)
(-0.181116 -0.0107434 0)
(-0.188644 -0.0492102 0)
(-0.198662 -0.108479 0)
(-0.205576 -0.189953 0)
(-0.194215 -0.279314 0)
(-0.145836 -0.322477 0)
(-0.0512608 -0.210165 0)
(-0.0210765 0.109846 0)
(-0.0670873 0.186539 0)
(-0.109137 0.191177 0)
(-0.132578 0.168362 0)
(-0.143514 0.139048 0)
(-0.146516 0.11161 0)
(-0.144887 0.0886553 0)
(-0.140809 0.0705032 0)
(-0.135632 0.0565596 0)
(-0.130225 0.0457643 0)
(-0.125276 0.0366173 0)
(-0.121572 0.0269755 0)
(-0.120247 0.0136905 0)
(-0.122917 -0.00783326 0)
(-0.131422 -0.0438897 0)
(-0.146661 -0.101845 0)
(-0.165733 -0.186388 0)
(-0.174447 -0.288843 0)
(-0.151782 -0.3574 0)
(-0.0601393 -0.261702 0)
(-0.0274743 0.133239 0)
(-0.0765027 0.209312 0)
(-0.109291 0.204792 0)
(-0.119372 0.174173 0)
(-0.117035 0.13982 0)
(-0.108447 0.109568 0)
(-0.0973406 0.0852448 0)
(-0.0857512 0.0665789 0)
(-0.0746774 0.0526117 0)
(-0.0645986 0.0421071 0)
(-0.0558517 0.0335559 0)
(-0.0489639 0.0249608 0)
(-0.0449834 0.0134507 0)
(-0.0457782 -0.00525267 0)
(-0.0541312 -0.0373571 0)
(-0.0729944 -0.091112 0)
(-0.103179 -0.174304 0)
(-0.133612 -0.285683 0)
(-0.144871 -0.381348 0)
(-0.0643848 -0.316973 0)
(-0.0359738 0.161581 0)
(-0.0864003 0.229126 0)
(-0.101799 0.211268 0)
(-0.0921064 0.172148 0)
(-0.0723772 0.133574 0)
(-0.0498706 0.101782 0)
(-0.0281767 0.077337 0)
(-0.0087178 0.0591994 0)
(0.00818117 0.0460063 0)
(0.0226345 0.0363629 0)
(0.0347865 0.0287923 0)
(0.0444751 0.0215074 0)
(0.050869 0.0120329 0)
(0.0520561 -0.00335205 0)
(0.0446009 -0.030285 0)
(0.0237942 -0.0771026 0)
(-0.0154347 -0.153965 0)
(-0.0671815 -0.267848 0)
(-0.11968 -0.389121 0)
(-0.0591644 -0.37132 0)
(-0.0457986 0.195829 0)
(-0.0931686 0.242065 0)
(-0.0784785 0.206393 0)
(-0.0415114 0.159479 0)
(-0.000854338 0.118777 0)
(0.0367604 0.0875757 0)
(0.0689512 0.064768 0)
(0.0955795 0.0484789 0)
(0.117367 0.0369941 0)
(0.135206 0.0288393 0)
(0.149802 0.0226423 0)
(0.161404 0.0168933 0)
(0.169459 0.0096018 0)
(0.172179 -0.00221551 0)
(0.16581 -0.0232016 0)
(0.144461 -0.0608853 0)
(0.0990224 -0.126337 0)
(0.0289477 -0.234388 0)
(-0.0701982 -0.375939 0)
(-0.0377509 -0.417278 0)
(-0.0521165 0.235553 0)
(-0.0851729 0.240603 0)
(-0.0229037 0.184133 0)
(0.0476102 0.133312 0)
(0.109868 0.0945526 0)
(0.160975 0.0670502 0)
(0.201283 0.0480708 0)
(0.232648 0.0350951 0)
(0.257126 0.0262618 0)
(0.276456 0.0201797 0)
(0.291881 0.0156923 0)
(0.304003 0.0116389 0)
(0.312532 0.0065724 0)
(0.315889 -0.00165119 0)
(0.310294 -0.016398 0)
(0.289467 -0.0435795 0)
(0.241142 -0.0931524 0)
(0.158541 -0.185607 0)
(0.0113212 -0.337446 0)
(0.00977325 -0.443039 0)
(-0.036122 0.275364 0)
(-0.0301859 0.21281 0)
(0.0954611 0.138679 0)
(0.198271 0.0927651 0)
(0.275666 0.0620896 0)
(0.333378 0.0419924 0)
(0.375827 0.0290199 0)
(0.407119 0.0206017 0)
(0.430546 0.0151026 0)
(0.448477 0.0114449 0)
(0.462468 0.00881834 0)
(0.473305 0.00647361 0)
(0.480851 0.00352391 0)
(0.483774 -0.0013231 0)
(0.478529 -0.0100835 0)
(0.459286 -0.026516 0)
(0.412117 -0.0575754 0)
(0.325973 -0.12414 0)
(0.137511 -0.267726 0)
(0.100143 -0.430246 0)
(0.0708901 0.284566 0)
(0.147841 0.150657 0)
(0.324891 0.0762555 0)
(0.438974 0.0454563 0)
(0.512285 0.0280981 0)
(0.562153 0.0177575 0)
(0.59648 0.0116603 0)
(0.62051 0.0079898 0)
(0.637837 0.00572915 0)
(0.650767 0.00429407 0)
(0.66069 0.0032883 0)
(0.668271 0.0023697 0)
(0.673386 0.00114687 0)
(0.674983 -0.000940559 0)
(0.670152 -0.00477062 0)
(0.654392 -0.0120112 0)
(0.614681 -0.0258476 0)
(0.539909 -0.0601667 0)
(0.334847 -0.165176 0)
(0.265473 -0.343265 0)
(0.489941 0.141283 0)
(0.586398 0.0608329 0)
(0.720032 0.0235943 0)
(0.787889 0.0115093 0)
(0.823192 0.00616505 0)
(0.844695 0.00343773 0)
(0.858421 0.00204663 0)
(0.867503 0.00131339 0)
(0.873839 0.000909642 0)
(0.878504 0.000675462 0)
(0.882076 0.000516123 0)
(0.884773 0.000355004 0)
(0.886439 0.000104067 0)
(0.886485 -0.00035857 0)
(0.883405 -0.00123162 0)
(0.875074 -0.00288198 0)
(0.854221 -0.00598417 0)
(0.815311 -0.0142953 0)
(0.673925 -0.0502041 0)
(0.591416 -0.135118 0)
)
;

boundaryField
{
    movingWall
    {
        type            fixedValue;
        value           uniform (1 0 0);
    }
    fixedWalls
    {
        type            noSlip;
    }
    frontAndBack
    {
        type            empty;
    }
}


// ************************************************************************* //
