/*--------------------------------*- C++ -*----------------------------------*\
  =========                 |
  \\      /  F ield         | OpenFOAM: The Open Source CFD Toolbox
   \\    /   O peration     | Website:  https://openfoam.org
    \\  /    A nd           | Version:  7
     \\/     M anipulation  |
\*---------------------------------------------------------------------------*/
FoamFile
{
    version     2.0;
    format      ascii;
    class       volScalarField;
    location    "0.3";
    object      p;
}
// * * * * * * * * * * * * * * * * * * * * * * * * * * * * * * * * * * * * * //

dimensions      [0 2 -2 0 0 0 0];

internalField   nonuniform List<scalar> 
400
(
-1.09706e-08
-2.82103e-06
-4.53297e-06
-4.6996e-06
-3.06458e-06
4.30915e-07
5.63934e-06
1.22747e-05
1.99705e-05
2.83122e-05
3.68579e-05
4.51563e-05
5.27649e-05
5.9269e-05
6.43054e-05
6.75974e-05
6.90162e-05
6.86513e-05
6.6802e-05
6.3943e-05
7.43595e-06
3.09503e-06
9.42573e-07
7.22299e-07
2.14504e-06
5.14482e-06
9.59531e-06
1.52619e-05
2.18366e-05
2.89641e-05
3.62597e-05
4.33285e-05
4.97862e-05
5.52789e-05
5.95045e-05
6.22411e-05
6.33855e-05
6.29088e-05
6.0575e-05
5.61664e-05
5.93607e-06
-2.38525e-07
-3.35466e-06
-3.8915e-06
-2.39151e-06
9.93886e-07
6.0876e-06
1.25989e-05
2.01608e-05
2.83572e-05
3.67405e-05
4.48503e-05
5.22374e-05
5.84847e-05
6.32303e-05
6.62002e-05
6.72523e-05
6.62947e-05
6.28736e-05
5.65808e-05
-3.2748e-06
-1.15244e-05
-1.56374e-05
-1.62735e-05
-1.41864e-05
-9.60476e-06
-2.78105e-06
5.89284e-06
1.59323e-05
2.67922e-05
3.78859e-05
4.86084e-05
5.83658e-05
6.66038e-05
7.28381e-05
7.67002e-05
7.79984e-05
7.66111e-05
7.19417e-05
6.34541e-05
-2.26987e-05
-3.39125e-05
-3.92853e-05
-3.9732e-05
-3.63162e-05
-2.93815e-05
-1.92975e-05
-6.61879e-06
7.9759e-06
2.37227e-05
3.97964e-05
5.53379e-05
6.9498e-05
8.14789e-05
9.05821e-05
9.62792e-05
9.83017e-05
9.65005e-05
9.00952e-05
7.83934e-05
-5.67219e-05
-7.22823e-05
-7.93211e-05
-7.91631e-05
-7.3361e-05
-6.24401e-05
-4.69469e-05
-2.76778e-05
-5.60357e-06
1.81771e-05
4.24657e-05
6.59964e-05
8.7501e-05
0.000105777
0.000119765
0.000128666
0.000132084
0.000129834
0.000120876
0.000104307
-0.000112663
-0.000134473
-0.000143694
-0.000142295
-0.000132582
-0.000115354
-9.14075e-05
-6.187e-05
-2.81198e-05
8.2631e-06
4.55261e-05
8.17764e-05
0.000115068
0.000143529
0.000165489
0.000179683
0.000185494
0.000182702
0.000169944
0.000146064
-0.000202089
-0.000232707
-0.00024474
-0.000241148
-0.000225369
-0.000198596
-0.000161936
-0.000116931
-6.54789e-05
-9.80733e-06
4.7545e-05
0.000103752
0.000155764
0.000200581
0.000235463
0.000258303
0.000268076
0.000264555
0.000246046
0.000211182
-0.000342752
-0.000385556
-0.000401179
-0.000394092
-0.000369387
-0.000328778
-0.000273701
-0.00020612
-0.000128501
-4.38645e-05
4.41908e-05
0.000131546
0.000213309
0.000284556
0.000340609
0.00037774
0.000394086
0.000389439
0.000361949
0.00031031
-0.000561292
-0.000620652
-0.000640921
-0.000628841
-0.00059187
-0.000532332
-0.000451853
-0.00035262
-0.000237501
-0.000110341
2.39022e-05
0.000159715
0.000289008
0.000403572
0.000495091
0.000556526
0.000584059
0.000577406
0.000535154
0.000457053
-0.000896725
-0.000978141
-0.00100473
-0.000986614
-0.000934536
-0.000851402
-0.000738586
-0.000597862
-0.000431849
-0.00024489
-4.33735e-05
0.000167706
0.00037368
0.000560803
0.000713881
0.000818744
0.000866603
0.000856231
0.000788126
0.00066602
-0.00140411
-0.0015143
-0.00155026
-0.00152709
-0.00145995
-0.0013521
-0.00120368
-0.00101468
-0.000785677
-0.000518913
-0.000219724
0.000100551
0.000428282
0.000738822
0.00100307
0.00119107
0.00128053
0.00126483
0.0011485
0.000946746
-0.00215704
-0.00230401
-0.00235527
-0.00233315
-0.00225881
-0.00213554
-0.00196076
-0.00173015
-0.0014388
-0.00108315
-0.000664569
-0.000192232
0.000325734
0.000847144
0.00131942
0.00167856
0.00186577
0.00185198
0.00164395
0.00128274
-0.00324598
-0.00343887
-0.00351579
-0.00350997
-0.00345129
-0.00334357
-0.00318024
-0.00294986
-0.00263713
-0.0022248
-0.00169845
-0.00105356
-0.000290587
0.000562763
0.00142167
0.00215368
0.00260335
0.00265915
0.00229531
0.00158447
-0.00477158
-0.0050216
-0.00514025
-0.00517901
-0.00518205
-0.00515654
-0.0050941
-0.00497793
-0.00478281
-0.00447303
-0.00400188
-0.00332275
-0.00240292
-0.00116531
0.000333359
0.00188744
0.00313112
0.00365338
0.00317264
0.00169591
-0.00682317
-0.00714092
-0.00730083
-0.00739096
-0.00749577
-0.00764201
-0.00782963
-0.00804778
-0.00827812
-0.00849268
-0.00863938
-0.00860342
-0.00817733
-0.00711931
-0.0051553
-0.0022264
0.00108146
0.00354674
0.00380891
0.00143484
-0.00949607
-0.00983512
-0.0100359
-0.0102207
-0.0105041
-0.0109375
-0.0115514
-0.01238
-0.013469
-0.0148748
-0.016643
-0.0187011
-0.0206435
-0.0215947
-0.0206097
-0.0168293
-0.0103421
-0.00311772
0.00123142
0.000738827
-0.0139815
-0.0139698
-0.0134449
-0.0130909
-0.013139
-0.0136419
-0.0146232
-0.0161415
-0.0183133
-0.0213118
-0.025307
-0.0303106
-0.0358866
-0.040776
-0.0427909
-0.0398738
-0.0305323
-0.0160309
-0.00214013
0.00546645
-0.0140699
-0.0149762
-0.0155033
-0.0157765
-0.0160674
-0.0165998
-0.0175806
-0.0192267
-0.0217855
-0.0255466
-0.0306922
-0.0371344
-0.0441617
-0.050063
-0.0517814
-0.0448628
-0.0270671
0.00109813
0.0343478
0.0636839
-0.0649168
-0.032773
-0.0196933
-0.0150389
-0.01289
-0.0119779
-0.0122215
-0.0136364
-0.0162122
-0.0198988
-0.0244805
-0.0292906
-0.0329819
-0.0331962
-0.0267349
-0.00870071
0.0271295
0.0835041
0.153792
0.225302
)
;

boundaryField
{
    movingWall
    {
        type            zeroGradient;
    }
    fixedWalls
    {
        type            zeroGradient;
    }
    frontAndBack
    {
        type            empty;
    }
}


// ************************************************************************* //
