/*--------------------------------*- C++ -*----------------------------------*\
  =========                 |
  \\      /  F ield         | OpenFOAM: The Open Source CFD Toolbox
   \\    /   O peration     | Website:  https://openfoam.org
    \\  /    A nd           | Version:  7
     \\/     M anipulation  |
\*---------------------------------------------------------------------------*/
FoamFile
{
    version     2.0;
    format      ascii;
    class       surfaceScalarField;
    location    "0.3";
    object      phi;
}
// * * * * * * * * * * * * * * * * * * * * * * * * * * * * * * * * * * * * * //

dimensions      [0 3 -1 0 0 0 0];

internalField   nonuniform List<scalar> 
760
(
-9.94915e-10
9.96039e-10
-4.79594e-09
3.80086e-09
-1.07564e-08
5.96022e-09
-1.77978e-08
7.04104e-09
-2.49622e-08
7.16408e-09
-3.15426e-08
6.58007e-09
-3.70587e-08
5.5159e-09
-4.11969e-08
4.138e-09
-4.37589e-08
2.56199e-09
-4.46323e-08
8.73446e-10
-4.3777e-08
-8.55205e-10
-4.12231e-08
-2.55389e-09
-3.7076e-08
-4.14709e-09
-3.15326e-08
-5.54345e-09
-2.4913e-08
-6.61993e-09
-1.77105e-08
-7.20281e-09
-1.06499e-08
-7.06094e-09
-4.70369e-09
-5.94646e-09
-9.49879e-10
-3.75388e-09
-9.49788e-10
-3.66336e-09
4.65931e-09
-1.25986e-08
1.27357e-08
-2.48016e-08
1.81629e-08
-3.84338e-08
2.0673e-08
-5.19762e-08
2.07063e-08
-6.42939e-08
1.88978e-08
-7.45855e-08
1.58077e-08
-8.23016e-08
1.18544e-08
-8.70804e-08
7.34119e-09
-8.8711e-08
2.50457e-09
-8.71181e-08
-2.44761e-09
-8.2359e-08
-7.31261e-09
-7.46319e-08
-1.1874e-08
-6.42957e-08
-1.58796e-08
-5.19102e-08
-1.90054e-08
-3.82996e-08
-2.08134e-08
-2.46287e-08
-2.07317e-08
-1.24426e-08
-1.81322e-08
-3.58142e-09
-1.26147e-08
-4.53127e-09
-5.11933e-09
9.7783e-09
-1.7511e-08
2.51268e-08
-3.42345e-08
3.4886e-08
-5.2711e-08
3.91491e-08
-7.09276e-08
3.89226e-08
-8.74229e-08
3.53929e-08
-1.01175e-07
2.95595e-08
-1.11481e-07
2.21603e-08
-1.17873e-07
1.37338e-08
-1.20075e-07
4.70663e-09
-1.17982e-07
-4.54128e-09
-1.1166e-07
-1.36344e-08
-1.0136e-07
-2.21738e-08
-8.7542e-08
-2.96981e-08
-7.0924e-08
-3.56236e-08
-5.25695e-08
-3.9168e-08
-3.39972e-08
-3.9304e-08
-1.72725e-08
-3.48568e-08
-4.98676e-09
-2.49004e-08
-9.51831e-09
-6.78035e-09
1.65584e-08
-2.32319e-08
4.15783e-08
-4.53931e-08
5.70471e-08
-6.9817e-08
6.35731e-08
-9.38521e-08
6.29578e-08
-1.15599e-07
5.71398e-08
-1.33738e-07
4.76985e-08
-1.4736e-07
3.57823e-08
-1.55852e-07
2.22266e-08
-1.58842e-07
7.69671e-09
-1.56175e-07
-7.20861e-09
-1.47919e-07
-2.18903e-08
-1.34383e-07
-3.57092e-08
-1.16156e-07
-4.79252e-08
-9.41736e-08
-5.76059e-08
-6.98358e-08
-6.35056e-08
-4.51591e-08
-6.39806e-08
-2.29092e-08
-5.71068e-08
-6.57715e-09
-4.12326e-08
-1.60954e-08
-9.32592e-09
2.58842e-08
-3.18377e-08
6.40901e-08
-6.20635e-08
8.72731e-08
-9.53064e-08
9.68161e-08
-1.27995e-07
9.56462e-08
-1.57589e-07
8.67344e-08
-1.82328e-07
7.24367e-08
-2.00985e-07
5.44399e-08
-2.1272e-07
3.39615e-08
-2.16998e-07
1.19747e-08
-2.13571e-07
-1.0636e-08
-2.02491e-07
-3.297e-08
-1.84144e-07
-5.40563e-08
-1.59306e-07
-7.27625e-08
-1.29249e-07
-8.76632e-08
-9.58944e-08
-9.68604e-08
-6.20249e-08
-9.78504e-08
-3.14615e-08
-8.76706e-08
-9.02532e-09
-6.3669e-08
-2.51204e-08
-1.32161e-08
3.91004e-08
-4.48317e-08
9.57061e-08
-8.70756e-08
1.29517e-07
-1.33418e-07
1.43159e-07
-1.78965e-07
1.41193e-07
-2.20263e-07
1.28032e-07
-2.54911e-07
1.07084e-07
-2.81216e-07
8.07453e-08
-2.97981e-07
5.07261e-08
-3.04403e-07
1.83972e-08
-3.00058e-07
-1.49817e-08
-2.84934e-07
-4.80938e-08
-2.59497e-07
-7.94929e-08
-2.24787e-07
-1.07472e-07
-1.82572e-07
-1.29878e-07
-1.35574e-07
-1.43859e-07
-8.77531e-08
-1.45671e-07
-4.45453e-08
-1.30878e-07
-1.27948e-08
-9.54194e-08
-3.79153e-08
-1.89889e-08
5.80896e-08
-6.39414e-08
1.40659e-07
-1.23677e-07
1.89253e-07
-1.8904e-07
2.08522e-07
-2.53282e-07
2.05436e-07
-3.11686e-07
1.86436e-07
-3.60961e-07
1.56359e-07
-3.98739e-07
1.18524e-07
-4.23277e-07
7.52638e-08
-4.33328e-07
2.84484e-08
-4.2813e-07
-2.01799e-08
-4.07486e-07
-6.8737e-08
-3.71905e-07
-1.15074e-07
-3.22755e-07
-1.56622e-07
-2.62523e-07
-1.90111e-07
-1.95145e-07
-2.11237e-07
-1.26398e-07
-2.14418e-07
-6.41974e-08
-1.93079e-07
-1.84578e-08
-1.41159e-07
-5.63736e-08
-2.73698e-08
8.54597e-08
-9.14572e-08
2.04747e-07
-1.76146e-07
2.73943e-07
-2.68606e-07
3.00982e-07
-3.59569e-07
2.964e-07
-4.42626e-07
2.69493e-07
-5.13284e-07
2.27017e-07
-5.68223e-07
1.73463e-07
-6.04866e-07
1.11907e-07
-6.21225e-07
4.48069e-08
-6.15895e-07
-2.55095e-08
-5.882e-07
-9.64318e-08
-5.38531e-07
-1.64744e-07
-4.68602e-07
-2.26552e-07
-3.81897e-07
-2.76816e-07
-2.84198e-07
-3.08936e-07
-1.84127e-07
-3.14489e-07
-9.34711e-08
-2.83734e-07
-2.68468e-08
-2.07783e-07
-8.32204e-08
-3.93153e-08
1.24775e-07
-1.30358e-07
2.95789e-07
-2.50014e-07
3.93599e-07
-3.8044e-07
4.31409e-07
-5.09055e-07
4.25014e-07
-6.27276e-07
3.87714e-07
-7.29053e-07
3.28794e-07
-8.09756e-07
2.54166e-07
-8.6555e-07
1.67702e-07
-8.93198e-07
7.24548e-08
-8.90111e-07
-2.8597e-08
-8.54427e-07
-1.32116e-07
-7.85984e-07
-2.33187e-07
-6.86648e-07
-3.25887e-07
-5.61183e-07
-4.0228e-07
-4.18174e-07
-4.51945e-07
-2.70815e-07
-4.61848e-07
-1.37163e-07
-4.17387e-07
-3.92083e-08
-3.05738e-07
-1.22428e-07
-5.59975e-08
1.80773e-07
-1.84251e-07
4.24043e-07
-3.51955e-07
5.61303e-07
-5.34628e-07
6.14082e-07
-7.15504e-07
6.0589e-07
-8.83374e-07
5.55584e-07
-1.0303e-06
4.75721e-07
-1.14993e-06
3.73797e-07
-1.23658e-06
2.54346e-07
-1.28493e-06
1.20805e-07
-1.29039e-06
-2.31311e-08
-1.2482e-06
-1.74314e-07
-1.1566e-06
-3.24786e-07
-1.01677e-06
-4.6571e-07
-8.34773e-07
-5.84282e-07
-6.23327e-07
-6.6339e-07
-4.03224e-07
-6.81951e-07
-2.03216e-07
-6.17396e-07
-5.74747e-08
-4.51479e-07
-1.79903e-07
-7.86859e-08
2.59458e-07
-2.57021e-07
6.02378e-07
-4.89147e-07
7.93428e-07
-7.42093e-07
8.67028e-07
-9.94115e-07
8.57912e-07
-1.23113e-06
7.92596e-07
-1.44317e-06
6.87764e-07
-1.62187e-06
5.52493e-07
-1.75897e-06
3.91453e-07
-1.84579e-06
2.0762e-07
-1.87545e-06
6.52579e-09
-1.83512e-06
-2.1464e-07
-1.71997e-06
-4.39937e-07
-1.52773e-06
-6.57948e-07
-1.26436e-06
-8.47649e-07
-9.48119e-07
-9.79634e-07
-6.12587e-07
-1.01748e-06
-3.06119e-07
-9.23864e-07
-8.48879e-08
-6.7271e-07
-2.64791e-07
-1.08471e-07
3.67929e-07
-3.52009e-07
8.45917e-07
-6.67767e-07
1.10919e-06
-1.01238e-06
1.21165e-06
-1.35869e-06
1.20422e-06
-1.69007e-06
1.12397e-06
-1.99504e-06
9.92738e-07
-2.26348e-06
8.20931e-07
-2.48428e-06
6.1225e-07
-2.64432e-06
3.67666e-07
-2.72721e-06
8.94178e-08
-2.7169e-06
-2.2495e-07
-2.59336e-06
-5.63482e-07
-2.34424e-06
-9.07069e-07
-1.96946e-06
-1.22243e-06
-1.49156e-06
-1.45753e-06
-9.64992e-07
-1.54405e-06
-4.7657e-07
-1.41228e-06
-1.27785e-07
-1.0215e-06
-3.92576e-07
-1.45791e-07
5.1372e-07
-4.70619e-07
1.17074e-06
-8.90286e-07
1.52885e-06
-1.34927e-06
1.67063e-06
-1.81525e-06
1.6702e-06
-2.27052e-06
1.57923e-06
-2.70401e-06
1.42623e-06
-3.10563e-06
1.22255e-06
-3.46252e-06
9.69139e-07
-3.75659e-06
6.6174e-07
-3.96271e-06
2.95531e-07
-4.05262e-06
-1.35037e-07
-3.97773e-06
-6.38376e-07
-3.69969e-06
-1.18511e-06
-3.19283e-06
-1.72928e-06
-2.4708e-06
-2.17957e-06
-1.61573e-06
-2.39912e-06
-7.90913e-07
-2.2371e-06
-2.02436e-07
-1.60997e-06
-5.95011e-07
-1.90196e-07
7.03917e-07
-6.11236e-07
1.59178e-06
-1.15266e-06
2.07028e-06
-1.74517e-06
2.26314e-06
-2.35274e-06
2.27777e-06
-2.96e-06
2.18649e-06
-3.56085e-06
2.02708e-06
-4.15044e-06
1.81214e-06
-4.71957e-06
1.53827e-06
-5.24954e-06
1.19171e-06
-5.70586e-06
7.51856e-07
-6.04322e-06
2.02322e-07
-6.17279e-06
-5.0881e-07
-5.98687e-06
-1.37102e-06
-5.38721e-06
-2.32894e-06
-4.3328e-06
-3.23398e-06
-2.92035e-06
-3.81157e-06
-1.44582e-06
-3.71163e-06
-3.56272e-07
-2.69952e-06
-9.51283e-07
-2.41141e-07
9.45057e-07
-7.70546e-07
2.12119e-06
-1.44373e-06
2.74346e-06
-2.17647e-06
2.99588e-06
-2.93195e-06
3.03326e-06
-3.70262e-06
2.95716e-06
-4.49498e-06
2.81945e-06
-5.31938e-06
2.63653e-06
-6.18234e-06
2.40123e-06
-7.07789e-06
2.08725e-06
-7.97337e-06
1.64734e-06
-8.78276e-06
1.01172e-06
-9.4176e-06
1.2603e-07
-9.59203e-06
-1.1966e-06
-9.08067e-06
-2.84029e-06
-7.69958e-06
-4.61508e-06
-5.48451e-06
-6.02663e-06
-2.86562e-06
-6.33052e-06
-7.23448e-07
-4.84169e-06
-1.67473e-06
-3.0783e-07
1.25289e-06
-9.67121e-07
2.78048e-06
-1.77695e-06
3.55329e-06
-2.62749e-06
3.84642e-06
-3.48915e-06
3.89492e-06
-4.37528e-06
3.84329e-06
-5.3163e-06
3.76047e-06
-6.34871e-06
3.66893e-06
-7.50791e-06
3.56044e-06
-8.81517e-06
3.39451e-06
-1.02531e-05
3.08532e-06
-1.1728e-05
2.48652e-06
-1.29958e-05
1.39389e-06
-1.37929e-05
-3.99527e-07
-1.37012e-05
-2.93204e-06
-1.23394e-05
-5.97682e-06
-9.5354e-06
-8.83064e-06
-5.5963e-06
-1.02696e-05
-1.70818e-06
-8.72982e-06
-3.38291e-06
-4.10472e-07
1.66336e-06
-1.16743e-06
3.53744e-06
-2.0608e-06
4.44666e-06
-2.97738e-06
4.763e-06
-3.87527e-06
4.79281e-06
-4.76275e-06
4.73077e-06
-5.6764e-06
4.67412e-06
-6.6678e-06
4.66033e-06
-7.79303e-06
4.68567e-06
-9.09497e-06
4.69645e-06
-1.05792e-05
4.56951e-06
-1.21837e-05
4.09105e-06
-1.37482e-05
2.95837e-06
-1.49237e-05
7.76024e-07
-1.54968e-05
-2.35893e-06
-1.50541e-05
-6.41951e-06
-1.30699e-05
-1.08149e-05
-9.16364e-06
-1.41759e-05
-3.83959e-06
-1.40539e-05
-7.2225e-06
-1.00198e-06
2.66534e-06
-2.17314e-06
4.7086e-06
-3.06106e-06
5.33458e-06
-3.78416e-06
5.48609e-06
-4.36345e-06
5.3721e-06
-4.80694e-06
5.17426e-06
-5.12486e-06
4.99204e-06
-5.33799e-06
4.87346e-06
-5.47431e-06
4.82199e-06
-5.57807e-06
4.80022e-06
-5.70887e-06
4.70031e-06
-5.95302e-06
4.3352e-06
-6.42474e-06
3.4301e-06
-7.277e-06
1.62828e-06
-8.39053e-06
-1.2454e-06
-9.69874e-06
-5.1113e-06
-1.04623e-05
-1.00514e-05
-9.51883e-06
-1.51193e-05
-5.63719e-06
-1.79355e-05
-1.28597e-05
-3.41782e-06
6.08317e-06
-5.57382e-06
6.86459e-06
-6.03457e-06
5.79534e-06
-5.42622e-06
4.87774e-06
-4.29517e-06
4.24105e-06
-2.87029e-06
3.74937e-06
-1.2528e-06
3.37456e-06
5.18752e-07
3.1019e-06
2.43266e-06
2.90808e-06
4.48173e-06
2.75115e-06
6.61461e-06
2.56743e-06
8.68031e-06
2.26949e-06
1.03668e-05
1.74366e-06
1.10754e-05
9.19678e-07
1.02657e-05
-4.35717e-07
8.26818e-06
-3.11381e-06
4.88218e-06
-6.66539e-06
6.70112e-07
-1.09072e-05
-2.16996e-06
-1.50954e-05
-1.50296e-05
6.08317e-06
1.29478e-05
1.87431e-05
2.36208e-05
2.78619e-05
3.16113e-05
3.49858e-05
3.80877e-05
4.09958e-05
4.3747e-05
4.63144e-05
4.85839e-05
5.03275e-05
5.12472e-05
5.08115e-05
4.76977e-05
4.10323e-05
3.01251e-05
1.50296e-05
)
;

boundaryField
{
    movingWall
    {
        type            calculated;
        value           uniform 0;
    }
    fixedWalls
    {
        type            calculated;
        value           uniform 0;
    }
    frontAndBack
    {
        type            empty;
        value           nonuniform 0();
    }
}


// ************************************************************************* //
