/*--------------------------------*- C++ -*----------------------------------*\
  =========                 |
  \\      /  F ield         | OpenFOAM: The Open Source CFD Toolbox
   \\    /   O peration     | Website:  https://openfoam.org
    \\  /    A nd           | Version:  7
     \\/     M anipulation  |
\*---------------------------------------------------------------------------*/
FoamFile
{
    version     2.0;
    format      ascii;
    class       volVectorField;
    location    "0.3";
    object      U;
}
// * * * * * * * * * * * * * * * * * * * * * * * * * * * * * * * * * * * * * //

dimensions      [0 1 -1 0 0 0 0];

internalField   nonuniform List<vector> 
400
(
(-1.46353e-06 2.37506e-06 0)
(-2.29051e-05 2.27638e-05 0)
(-7.40902e-05 4.07711e-05 0)
(-0.000141614 5.05728e-05 0)
(-0.000214433 5.25036e-05 0)
(-0.000284382 4.86177e-05 0)
(-0.000345692 4.08762e-05 0)
(-0.000394502 3.06974e-05 0)
(-0.000428331 1.90247e-05 0)
(-0.00044567 6.51824e-06 0)
(-0.000445771 -6.28658e-06 0)
(-0.000428583 -1.88789e-05 0)
(-0.00039476 -3.06971e-05 0)
(-0.000345767 -4.10331e-05 0)
(-0.000284108 -4.88809e-05 0)
(-0.000213744 -5.27608e-05 0)
(-0.000140613 -5.06752e-05 0)
(-7.30567e-05 -4.05944e-05 0)
(-2.21588e-05 -2.23156e-05 0)
(-1.22247e-06 -1.95183e-06 0)
(-1.2384e-05 4.63928e-05 0)
(-7.0671e-05 0.000143594 0)
(-0.000180491 0.000213601 0)
(-0.000314632 0.000247702 0)
(-0.000453828 0.000250242 0)
(-0.000585309 0.000229258 0)
(-0.000699864 0.000192059 0)
(-0.000790928 0.000144095 0)
(-0.000854045 8.92415e-05 0)
(-0.000886414 3.04488e-05 0)
(-0.000886624 -2.97417e-05 0)
(-0.000854579 -8.88619e-05 0)
(-0.000791524 -0.000144268 0)
(-0.000700179 -0.000192822 0)
(-0.000585032 -0.000230405 0)
(-0.000452818 -0.000251333 0)
(-0.000313033 -0.000248161 0)
(-0.000178759 -0.000212956 0)
(-6.93834e-05 -0.00014187 0)
(-1.19429e-05 -4.46934e-05 0)
(-1.74387e-05 0.000138578 0)
(-9.86636e-05 0.000363763 0)
(-0.000250127 0.000510177 0)
(-0.000432947 0.000575857 0)
(-0.000620823 0.000574406 0)
(-0.000797206 0.000523216 0)
(-0.00095039 0.000437304 0)
(-0.00107202 0.000327863 0)
(-0.00115636 0.000203071 0)
(-0.00119977 6.93722e-05 0)
(-0.00120036 -6.75266e-05 0)
(-0.00115792 -0.000202029 0)
(-0.00107401 -0.000328185 0)
(-0.00095208 -0.000439102 0)
(-0.000797896 -0.000526028 0)
(-0.00062011 -0.000577207 0)
(-0.000430953 -0.000577289 0)
(-0.00024758 -0.000509079 0)
(-9.66119e-05 -0.000360081 0)
(-1.6697e-05 -0.000134705 0)
(-2.30444e-05 0.000255084 0)
(-0.000130854 0.000645765 0)
(-0.000331841 0.00089007 0)
(-0.000573807 0.000994835 0)
(-0.000821872 0.000986912 0)
(-0.00105444 0.000896434 0)
(-0.00125639 0.000748388 0)
(-0.00141694 0.000561118 0)
(-0.00152864 0.000348011 0)
(-0.00158666 0.000119713 0)
(-0.00158837 -0.000114234 0)
(-0.00153333 -0.000344391 0)
(-0.00142336 -0.000560694 0)
(-0.00126281 -0.000751527 0)
(-0.00105914 -0.000902256 0)
(-0.000823681 -0.000993302 0)
(-0.000572591 -0.000998896 0)
(-0.000328733 -0.000889196 0)
(-0.000127806 -0.000639478 0)
(-2.18406e-05 -0.000247795 0)
(-3.18825e-05 0.000411742 0)
(-0.000179781 0.00102436 0)
(-0.000454297 0.00139905 0)
(-0.000783879 0.00155517 0)
(-0.00112127 0.00153805 0)
(-0.00143757 0.00139514 0)
(-0.00171261 0.00116466 0)
(-0.00193196 0.000874226 0)
(-0.0020855 0.000543884 0)
(-0.00216646 0.000189639 0)
(-0.00217095 -0.000174012 0)
(-0.00209792 -0.000532557 0)
(-0.00194948 -0.00087038 0)
(-0.00173125 -0.00116941 0)
(-0.00145321 -0.0014069 0)
(-0.00113085 -0.00155255 0)
(-0.000786449 -0.00156632 0)
(-0.000451588 -0.00140106 0)
(-0.000175504 -0.00101539 0)
(-2.99496e-05 -0.000399271 0)
(-4.56287e-05 0.000631033 0)
(-0.000254194 0.00155036 0)
(-0.000638598 0.00210322 0)
(-0.00109844 0.00232855 0)
(-0.00156846 0.00229825 0)
(-0.00200932 0.00208372 0)
(-0.00239366 0.00174104 0)
(-0.00270174 0.00131005 0)
(-0.00291938 0.000819433 0)
(-0.00303671 0.00029214 0)
(-0.00304761 -0.000250783 0)
(-0.00294977 -0.000787896 0)
(-0.00274528 -0.00129576 0)
(-0.0024414 -0.00174701 0)
(-0.00205179 -0.00210721 0)
(-0.00159824 -0.00233065 0)
(-0.00111242 -0.00235712 0)
(-0.000639306 -0.00211523 0)
(-0.000248766 -0.00154028 0)
(-4.25643e-05 -0.000610955 0)
(-6.62864e-05 0.000944635 0)
(-0.000364228 0.00229512 0)
(-0.000908949 0.003095 0)
(-0.00155801 0.00341496 0)
(-0.00222058 0.0033658 0)
(-0.00284287 0.0030526 0)
(-0.00338765 0.00255566 0)
(-0.00382761 0.00193092 0)
(-0.0041426 0.00121815 0)
(-0.00431782 0.000449185 0)
(-0.00434318 -0.000346289 0)
(-0.00421365 -0.00113729 0)
(-0.00393046 -0.00188906 0)
(-0.00350252 -0.0025604 0)
(-0.00294855 -0.00309931 0)
(-0.00229969 -0.00343716 0)
(-0.00160209 -0.0034843 0)
(-0.00092137 -0.00313459 0)
(-0.000358859 -0.00229029 0)
(-6.1519e-05 -0.000914016 0)
(-9.66113e-05 0.00139672 0)
(-0.000523434 0.00335723 0)
(-0.0012973 0.00450154 0)
(-0.00221591 0.00495194 0)
(-0.00315297 0.00487672 0)
(-0.00403541 0.00442847 0)
(-0.00481279 0.00372028 0)
(-0.00544748 0.00282888 0)
(-0.00591057 0.00180773 0)
(-0.00617941 0.000699625 0)
(-0.00623686 -0.000454767 0)
(-0.0060721 -0.00161152 0)
(-0.00568301 -0.00271924 0)
(-0.00507931 -0.00371558 0)
(-0.00428606 -0.00452121 0)
(-0.00334817 -0.00503208 0)
(-0.00233423 -0.00511415 0)
(-0.00134236 -0.00461049 0)
(-0.000522409 -0.00337642 0)
(-8.93539e-05 -0.00135297 0)
(-0.000140291 0.00204821 0)
(-0.00074955 0.00487108 0)
(-0.00184503 0.0064953 0)
(-0.00314096 0.00712633 0)
(-0.00446326 0.00701761 0)
(-0.00571401 0.00638844 0)
(-0.00682604 0.0053957 0)
(-0.00774803 0.00414205 0)
(-0.00843846 0.00269672 0)
(-0.00886222 0.00111472 0)
(-0.00898986 -0.000550325 0)
(-0.00879824 -0.00223804 0)
(-0.0082759 -0.0038725 0)
(-0.00742984 -0.00535841 0)
(-0.00629153 -0.00657237 0)
(-0.00492546 -0.00735315 0)
(-0.00343568 -0.00749694 0)
(-0.0019732 -0.00677065 0)
(-0.000764922 -0.00496371 0)
(-0.000129563 -0.00199194 0)
(-0.000201886 0.00298151 0)
(-0.00106415 0.00701607 0)
(-0.00260206 0.00930552 0)
(-0.00441626 0.0101876 0)
(-0.00627018 0.0100412 0)
(-0.00803568 0.00917873 0)
(-0.0096258 0.0078144 0)
(-0.0109721 0.00608133 0)
(-0.0120156 0.00406443 0)
(-0.0127018 0.00182951 0)
(-0.0129808 -0.000557645 0)
(-0.0128041 -0.00301901 0)
(-0.0121362 -0.00544304 0)
(-0.0109715 -0.00768287 0)
(-0.00934269 -0.00954182 0)
(-0.00733963 -0.0107614 0)
(-0.00512279 -0.0110217 0)
(-0.00293341 -0.00997023 0)
(-0.0011273 -0.00730527 0)
(-0.000186862 -0.00292458 0)
(-0.000286335 0.00430398 0)
(-0.00149041 0.0100235 0)
(-0.00362192 0.0132269 0)
(-0.00613119 0.0144588 0)
(-0.00870313 0.0142812 0)
(-0.0111759 0.0131357 0)
(-0.0134419 0.0113096 0)
(-0.0154141 0.00896849 0)
(-0.0170108 0.00620683 0)
(-0.0181505 0.00309174 0)
(-0.0187518 -0.000305304 0)
(-0.0187154 -0.00388365 0)
(-0.0179485 -0.00749837 0)
(-0.0164077 -0.0109252 0)
(-0.0141054 -0.0138425 0)
(-0.0111535 -0.0158171 0)
(-0.00779926 -0.0163186 0)
(-0.00444523 -0.0147916 0)
(-0.00168138 -0.0108077 0)
(-0.000267464 -0.00429062 0)
(-0.000397783 0.00614767 0)
(-0.00204804 0.0141759 0)
(-0.00495036 0.0186191 0)
(-0.00836282 0.020338 0)
(-0.0118766 0.0201609 0)
(-0.0152977 0.0187067 0)
(-0.0185041 0.0163545 0)
(-0.021395 0.0132998 0)
(-0.0238679 0.00963151 0)
(-0.0258024 0.00539597 0)
(-0.027052 0.000645683 0)
(-0.0274537 -0.0045225 0)
(-0.0268172 -0.00994178 0)
(-0.0249695 -0.0152821 0)
(-0.0218308 -0.0200169 0)
(-0.0174917 -0.0233896 0)
(-0.0123105 -0.0244532 0)
(-0.00698449 -0.0222535 0)
(-0.00257512 -0.0161692 0)
(-0.000379819 -0.00630401 0)
(-0.000537606 0.00866094 0)
(-0.00274473 0.0197911 0)
(-0.00660568 0.0258857 0)
(-0.011141 0.0282774 0)
(-0.0158364 0.028177 0)
(-0.0204771 0.0264484 0)
(-0.0249459 0.0235863 0)
(-0.0291478 0.0198093 0)
(-0.0329738 0.0151721 0)
(-0.0362722 0.00965424 0)
(-0.0388335 0.00322551 0)
(-0.0403906 -0.00409745 0)
(-0.040552 -0.0121762 0)
(-0.0388606 -0.0206173 0)
(-0.0349591 -0.0286005 0)
(-0.028733 -0.0347806 0)
(-0.0205867 -0.037324 0)
(-0.0117127 -0.0343378 0)
(-0.00418778 -0.0247712 0)
(-0.000547229 -0.00934605 0)
(-0.000703932 0.0119925 0)
(-0.00357118 0.0271899 0)
(-0.00856107 0.0354279 0)
(-0.0144082 0.0387244 0)
(-0.0204868 0.038838 0)
(-0.026589 0.0369736 0)
(-0.0326447 0.0337793 0)
(-0.0386153 0.0294936 0)
(-0.0444396 0.0241002 0)
(-0.0499861 0.0174374 0)
(-0.0550114 0.00927225 0)
(-0.0591179 -0.000614666 0)
(-0.0616465 -0.0123122 0)
(-0.0615805 -0.0256331 0)
(-0.0578093 -0.0394975 0)
(-0.0495253 -0.0516243 0)
(-0.0368132 -0.0583142 0)
(-0.0214691 -0.05523 0)
(-0.00759094 -0.0398303 0)
(-0.000870308 -0.0143669 0)
(-0.000897261 0.0162677 0)
(-0.00451465 0.0366346 0)
(-0.0107525 0.0475177 0)
(-0.0179976 0.0519116 0)
(-0.0255164 0.0523818 0)
(-0.0331534 0.0506328 0)
(-0.0409532 0.0475348 0)
(-0.0490227 0.0433599 0)
(-0.0574663 0.037998 0)
(-0.0663061 0.0310695 0)
(-0.0753639 0.0219573 0)
(-0.0841551 0.00983481 0)
(-0.0917739 -0.00616687 0)
(-0.0962921 -0.0264616 0)
(-0.0950086 -0.0503651 0)
(-0.085674 -0.0744922 0)
(-0.0672587 -0.0917069 0)
(-0.0416517 -0.0920436 0)
(-0.015621 -0.0679093 0)
(-0.00181839 -0.0236319 0)
(-0.00117346 0.0216461 0)
(-0.00572744 0.0482965 0)
(-0.01337 0.0623111 0)
(-0.0219343 0.0680736 0)
(-0.0305542 0.0691587 0)
(-0.0392499 0.0679087 0)
(-0.0483108 0.0655447 0)
(-0.0580964 0.0624885 0)
(-0.0689923 0.0586128 0)
(-0.0813448 0.0532995 0)
(-0.0952785 0.0453196 0)
(-0.110285 0.0326518 0)
(-0.124719 0.0126104 0)
(-0.135895 -0.0172149 0)
(-0.139912 -0.0571399 0)
(-0.132594 -0.102523 0)
(-0.111194 -0.141437 0)
(-0.0762088 -0.154702 0)
(-0.0345815 -0.122132 0)
(-0.00591659 -0.0432352 0)
(-0.00177595 0.0296484 0)
(-0.00724703 0.0641735 0)
(-0.0157663 0.0800343 0)
(-0.0251363 0.0850576 0)
(-0.034297 0.0852915 0)
(-0.0431647 0.0841013 0)
(-0.0520491 0.0829269 0)
(-0.0614261 0.0821684 0)
(-0.0718707 0.081572 0)
(-0.0839725 0.0801092 0)
(-0.0981769 0.075529 0)
(-0.114394 0.0639626 0)
(-0.131266 0.0401621 0)
(-0.145774 -0.000966456 0)
(-0.154847 -0.0614723 0)
(-0.154775 -0.136142 0)
(-0.141371 -0.209684 0)
(-0.111675 -0.254037 0)
(-0.0670111 -0.228438 0)
(-0.0183538 -0.0968047 0)
(-0.00540284 0.0318993 0)
(-0.0156859 0.0718869 0)
(-0.0261049 0.09524 0)
(-0.0345023 0.105399 0)
(-0.0411053 0.107649 0)
(-0.0461794 0.106626 0)
(-0.0498833 0.10516 0)
(-0.0523985 0.104545 0)
(-0.0540014 0.104919 0)
(-0.0551284 0.105257 0)
(-0.0564314 0.102821 0)
(-0.0587944 0.0928926 0)
(-0.0631713 0.0689382 0)
(-0.0702111 0.0238236 0)
(-0.0802284 -0.0476883 0)
(-0.0914455 -0.144671 0)
(-0.0990564 -0.254526 0)
(-0.0978265 -0.349629 0)
(-0.0807133 -0.374373 0)
(-0.0305712 -0.22569 0)
(-0.0211921 0.1026 0)
(-0.0497969 0.13511 0)
(-0.061306 0.122393 0)
(-0.0587364 0.109316 0)
(-0.0492753 0.0990302 0)
(-0.0361367 0.0907264 0)
(-0.0207517 0.0845575 0)
(-0.00378188 0.0805858 0)
(0.0146465 0.0784292 0)
(0.0344134 0.0771479 0)
(0.0550478 0.0749894 0)
(0.0756044 0.0691174 0)
(0.09407 0.0555727 0)
(0.10615 0.0294231 0)
(0.105293 -0.0148188 0)
(0.0944365 -0.0821371 0)
(0.0722279 -0.178008 0)
(0.034146 -0.295972 0)
(-0.014633 -0.391086 0)
(-0.00939315 -0.32976 0)
(0.0778725 0.0861759 0)
(0.0878277 0.109181 0)
(0.150769 0.101863 0)
(0.210501 0.0909312 0)
(0.258467 0.0805333 0)
(0.298465 0.0712099 0)
(0.333733 0.0631191 0)
(0.365886 0.0562894 0)
(0.395704 0.050657 0)
(0.423667 0.0459864 0)
(0.449669 0.0417906 0)
(0.47331 0.0375365 0)
(0.492496 0.0318793 0)
(0.505819 0.024278 0)
(0.506473 0.0120201 0)
(0.494115 -0.00303569 0)
(0.452921 -0.025078 0)
(0.384434 -0.0459302 0)
(0.245424 -0.0833017 0)
(0.130651 -0.131945 0)
)
;

boundaryField
{
    movingWall
    {
        type            fixedValue;
        value           uniform (1 0 0);
    }
    fixedWalls
    {
        type            noSlip;
    }
    frontAndBack
    {
        type            empty;
    }
}


// ************************************************************************* //
