/*--------------------------------*- C++ -*----------------------------------*\
  =========                 |
  \\      /  F ield         | OpenFOAM: The Open Source CFD Toolbox
   \\    /   O peration     | Website:  https://openfoam.org
    \\  /    A nd           | Version:  7
     \\/     M anipulation  |
\*---------------------------------------------------------------------------*/
FoamFile
{
    version     2.0;
    format      ascii;
    class       volScalarField;
    location    "0.1";
    object      p;
}
// * * * * * * * * * * * * * * * * * * * * * * * * * * * * * * * * * * * * * //

dimensions      [0 2 -2 0 0 0 0];

internalField   nonuniform List<scalar> 
400
(
3.18463e-09
-8.86859e-06
-1.60043e-05
-1.93771e-05
-1.82059e-05
-1.22428e-05
-1.78996e-06
1.24466e-05
2.95171e-05
4.83295e-05
6.77115e-05
8.64622e-05
0.000103402
0.000117427
0.000127572
0.000133119
0.000133751
0.000129719
0.000121935
0.000112551
2.70142e-05
1.35787e-05
4.71997e-06
7.04754e-07
7.17942e-07
4.60628e-06
1.21432e-05
2.27958e-05
3.58072e-05
5.02795e-05
6.52294e-05
7.96422e-05
9.25272e-05
0.000102975
0.000110216
0.000113713
0.000113245
0.000108691
9.93277e-05
8.55033e-05
3.30356e-05
1.38664e-05
1.2391e-06
-4.73893e-06
-5.63101e-06
-1.86371e-06
6.21125e-06
1.79269e-05
3.23819e-05
4.85307e-05
6.52375e-05
8.13303e-05
9.56624e-05
0.00010717
0.000114934
0.000118283
0.000116878
0.000110338
9.71988e-05
7.76472e-05
2.0773e-05
-4.94103e-06
-2.17479e-05
-2.95015e-05
-3.03528e-05
-2.49395e-05
-1.37784e-05
2.21747e-06
2.18435e-05
4.37152e-05
6.63334e-05
8.81504e-05
0.000107645
0.000123397
0.000134167
0.000139026
0.000137473
0.000128937
0.000111413
8.51826e-05
-1.48099e-05
-4.9868e-05
-7.22034e-05
-8.15772e-05
-8.09839e-05
-7.13652e-05
-5.35022e-05
-2.8717e-05
1.26826e-06
3.44808e-05
6.8783e-05
0.000101962
0.000131831
0.000156339
0.000173683
0.000182491
0.000182003
0.000171389
0.000147903
0.00011203
-8.40106e-05
-0.000132854
-0.000162814
-0.000173559
-0.000169414
-0.000151818
-0.000121978
-8.18586e-05
-3.39974e-05
1.87028e-05
7.30872e-05
0.00012587
0.000173788
0.000213752
0.000243025
0.000259505
0.000261991
0.000249241
0.00021737
0.000167167
-0.000204389
-0.000273275
-0.00031369
-0.000325221
-0.000314254
-0.000283011
-0.000233353
-0.000168214
-9.1348e-05
-7.05637e-06
7.99571e-05
0.00016475
0.000242366
0.000308061
0.00035759
0.000387645
0.00039628
0.000381595
0.00033798
0.000266709
-0.000404171
-0.000501834
-0.000556447
-0.000567569
-0.000544701
-0.000491269
-0.000410102
-0.000305522
-0.000183029
-4.89587e-05
8.96984e-05
0.000225496
0.000350853
0.000458409
0.000541467
0.000594716
0.000614927
0.000599125
0.000539131
0.000437032
-0.000727295
-0.000865947
-0.000939729
-0.000948315
-0.000905882
-0.000817661
-0.000687834
-0.000522624
-0.000329927
-0.000118918
0.000100131
0.000316065
0.000517272
0.000692235
0.000830238
0.000922558
0.000963674
0.000948783
0.000865883
0.000718496
-0.00124102
-0.00143777
-0.00153742
-0.00154011
-0.00146703
-0.00132605
-0.00112316
-0.000866978
-0.000568495
-0.000240641
0.000101794
0.000442319
0.000763181
0.00104625
0.0012741
0.00143203
0.00151022
0.00150055
0.00138526
0.00117056
-0.002047
-0.00232581
-0.00246048
-0.00245249
-0.00233356
-0.0021154
-0.00180613
-0.00141713
-0.000962918
-0.00046097
6.81047e-05
0.000600518
0.00110932
0.00156585
0.00194139
0.00221038
0.00235452
0.0023591
0.00219734
0.00188063
-0.00329719
-0.00369162
-0.00387411
-0.00384933
-0.00366508
-0.0033386
-0.0028802
-0.00230364
-0.00162664
-0.000871252
-6.47773e-05
0.000760284
0.00156341
0.00229971
0.00292121
0.00338225
0.00364697
0.00368628
0.00345735
0.00298133
-0.00521687
-0.00577444
-0.00602301
-0.0059748
-0.00570279
-0.00523226
-0.00457503
-0.00374537
-0.00276181
-0.00164923
-0.000441009
0.000824269
0.0020862
0.00327656
0.00431561
0.00511995
0.00561625
0.0057411
0.00541689
0.00468042
-0.00813905
-0.00892851
-0.0092695
-0.00919206
-0.00881068
-0.00816291
-0.00725993
-0.0061118
-0.00473181
-0.00314075
-0.00137075
0.000533778
0.00249891
0.00442562
0.00618474
0.00762423
0.00859083
0.0089361
0.00849186
0.00730755
-0.0125624
-0.0136857
-0.014153
-0.0140383
-0.0135308
-0.0126879
-0.0115155
-0.0100109
-0.00817117
-0.00599729
-0.00350234
-0.000726105
0.0022706
0.00536514
0.00836787
0.0110162
0.012995
0.013944
0.0134356
0.0114682
-0.0192652
-0.020867
-0.0214809
-0.0212945
-0.0206414
-0.0196113
-0.0181944
-0.0163623
-0.0140817
-0.0113164
-0.00803255
-0.00421283
0.000142586
0.0049579
0.0100395
0.0150134
0.0192828
0.0219672
0.0218834
0.0186966
-0.0296595
-0.0318084
-0.0323799
-0.0319313
-0.0310615
-0.0298644
-0.0282786
-0.0262378
-0.0236774
-0.0205207
-0.0166605
-0.0119598
-0.00630559
0.000470245
0.00844015
0.017374
0.0264271
0.0337038
0.036208
0.0324734
-0.0477532
-0.0498259
-0.049053
-0.0473234
-0.045704
-0.0440887
-0.0422304
-0.039995
-0.0373033
-0.0340711
-0.0301577
-0.0253155
-0.0191659
-0.0112018
-0.000501778
0.0135827
0.0306933
0.0481079
0.0600821
0.0620551
-0.0798831
-0.074477
-0.0690905
-0.0655538
-0.062916
-0.0603511
-0.0575864
-0.0545575
-0.051232
-0.0475458
-0.0433429
-0.0382907
-0.0316339
-0.0214416
-0.00648965
0.0154951
0.0463175
0.0852566
0.126436
0.158528
-0.23678
-0.14185
-0.0923611
-0.0717334
-0.0617876
-0.0558463
-0.051912
-0.0489995
-0.0463778
-0.0434795
-0.0397344
-0.0343209
-0.025881
-0.0123742
0.0108418
0.0489484
0.107358
0.188567
0.292833
0.420641
)
;

boundaryField
{
    movingWall
    {
        type            zeroGradient;
    }
    fixedWalls
    {
        type            zeroGradient;
    }
    frontAndBack
    {
        type            empty;
    }
}


// ************************************************************************* //
