/*--------------------------------*- C++ -*----------------------------------*\
  =========                 |
  \\      /  F ield         | OpenFOAM: The Open Source CFD Toolbox
   \\    /   O peration     | Website:  https://openfoam.org
    \\  /    A nd           | Version:  7
     \\/     M anipulation  |
\*---------------------------------------------------------------------------*/
FoamFile
{
    version     2.0;
    format      ascii;
    class       surfaceScalarField;
    location    "0.1";
    object      phi;
}
// * * * * * * * * * * * * * * * * * * * * * * * * * * * * * * * * * * * * * //

dimensions      [0 3 -1 0 0 0 0];

internalField   nonuniform List<scalar> 
760
(
-8.9249e-10
8.9225e-10
-4.71963e-09
3.82716e-09
-1.08119e-08
6.09232e-09
-1.80209e-08
7.20904e-09
-2.53529e-08
7.33209e-09
-3.20851e-08
6.73222e-09
-3.77273e-08
5.64228e-09
-4.19581e-08
4.23085e-09
-4.45745e-08
2.61634e-09
-4.54623e-08
8.87827e-10
-4.45834e-08
-8.79032e-10
-4.19718e-08
-2.61167e-09
-3.77388e-08
-4.23314e-09
-3.20869e-08
-5.65199e-09
-2.53402e-08
-6.74672e-09
-1.79943e-08
-7.34587e-09
-1.07789e-08
-7.21542e-09
-4.69196e-09
-6.08695e-09
-8.81492e-10
-3.8105e-09
-8.81484e-10
-3.67841e-09
4.57069e-09
-1.27806e-08
1.29294e-08
-2.52537e-08
1.85656e-08
-3.92018e-08
2.11572e-08
-5.30643e-08
2.11948e-08
-6.56781e-08
1.93462e-08
-7.6219e-08
1.61833e-08
-8.41196e-08
1.21315e-08
-8.90067e-08
7.50358e-09
-9.06658e-08
2.54692e-09
-8.90242e-08
-2.52069e-09
-8.41471e-08
-7.48874e-09
-7.62442e-08
-1.21361e-08
-6.56869e-08
-1.62092e-08
-5.30464e-08
-1.93871e-08
-3.91554e-08
-2.12368e-08
-2.51888e-08
-2.1182e-08
-1.27177e-08
-1.8558e-08
-3.63978e-09
-1.28883e-08
-4.52122e-09
-5.13745e-09
9.70817e-09
-1.7759e-08
2.55509e-08
-3.48616e-08
3.56681e-08
-5.37799e-08
4.00756e-08
-7.24413e-08
3.98562e-08
-8.93427e-08
3.62475e-08
-1.03429e-07
3.02697e-08
-1.13974e-07
2.26763e-08
-1.20497e-07
1.40266e-08
-1.22719e-07
4.76927e-09
-1.20544e-07
-4.69562e-09
-1.14054e-07
-1.3979e-08
-1.03516e-07
-2.26738e-08
-8.94078e-08
-3.03179e-08
-7.24598e-08
-3.63351e-08
-5.3742e-08
-3.99546e-08
-3.47788e-08
-4.01454e-08
-1.76632e-08
-3.56737e-08
-5.07125e-09
-2.54802e-08
-9.59261e-09
-6.79597e-09
1.65042e-08
-2.3574e-08
4.23289e-08
-4.62896e-08
5.83838e-08
-7.13647e-08
6.51507e-08
-9.60505e-08
6.45419e-08
-1.18377e-07
5.85744e-08
-1.36974e-07
4.88663e-08
-1.50898e-07
3.66007e-08
-1.59526e-07
2.26543e-08
-1.62491e-07
7.73442e-09
-1.59662e-07
-7.52478e-09
-1.51137e-07
-2.25035e-08
-1.37258e-07
-3.65528e-08
-1.18638e-07
-4.89378e-08
-9.62274e-08
-5.87459e-08
-7.14242e-08
-6.47578e-08
-4.62396e-08
-6.53299e-08
-2.3466e-08
-5.84472e-08
-6.70945e-09
-4.22369e-08
-1.63022e-08
-9.35759e-09
2.58617e-08
-3.23682e-08
6.53394e-08
-6.34454e-08
8.94609e-08
-9.76897e-08
9.93949e-08
-1.31365e-07
9.82174e-08
-1.61811e-07
8.90198e-08
-1.87178e-07
7.42334e-08
-2.06195e-07
5.56185e-08
-2.18016e-07
3.4475e-08
-2.22136e-07
1.1854e-08
-2.18363e-07
-1.1298e-08
-2.06815e-07
-3.40507e-08
-1.87942e-07
-5.54267e-08
-1.62562e-07
-7.43177e-08
-1.31959e-07
-8.93488e-08
-9.80345e-08
-9.86823e-08
-6.35341e-08
-9.98303e-08
-3.22861e-08
-8.96951e-08
-9.2534e-09
-6.52698e-08
-2.55554e-08
-1.32912e-08
3.91528e-08
-4.57232e-08
9.77714e-08
-8.93478e-08
1.33086e-07
-1.37303e-07
1.4735e-07
-1.84406e-07
1.4532e-07
-2.26984e-07
1.31598e-07
-2.62489e-07
1.09739e-07
-2.89164e-07
8.22929e-08
-3.05823e-07
5.11343e-08
-3.11748e-07
1.77787e-08
-3.06644e-07
-1.64014e-08
-2.90647e-07
-5.00477e-08
-2.6435e-07
-8.17241e-08
-2.28873e-07
-1.09795e-07
-1.85993e-07
-1.32229e-07
-1.38363e-07
-1.46313e-07
-8.9829e-08
-1.48365e-07
-4.57697e-08
-1.33755e-07
-1.31869e-08
-9.78526e-08
-3.87422e-08
-1.91743e-08
5.83271e-08
-6.55492e-08
1.44146e-07
-1.27639e-07
1.95176e-07
-1.95711e-07
2.15422e-07
-2.62492e-07
2.12102e-07
-3.22864e-07
1.91969e-07
-3.73278e-07
1.60152e-07
-4.11272e-07
1.20288e-07
-4.35168e-07
7.50294e-08
-4.43913e-07
2.65242e-08
-4.3704e-07
-2.32749e-08
-4.14674e-07
-7.24138e-08
-3.77591e-07
-1.18807e-07
-3.27327e-07
-1.60059e-07
-2.66367e-07
-1.93188e-07
-1.98469e-07
-2.1421e-07
-1.29111e-07
-2.17722e-07
-6.59798e-08
-1.96887e-07
-1.91193e-08
-1.44713e-07
-5.78616e-08
-2.78287e-08
8.61558e-08
-9.45328e-08
2.10851e-07
-1.83414e-07
2.84056e-07
-2.80592e-07
3.126e-07
-3.75827e-07
3.07337e-07
-4.61963e-07
2.78105e-07
-5.3405e-07
2.32239e-07
-5.88631e-07
1.74868e-07
-6.23303e-07
1.09701e-07
-6.36507e-07
3.97283e-08
-6.27467e-07
-3.23149e-08
-5.9623e-07
-1.03651e-07
-5.43766e-07
-1.71271e-07
-4.72148e-07
-2.31676e-07
-3.84861e-07
-2.80475e-07
-2.87266e-07
-3.11806e-07
-1.87256e-07
-3.17732e-07
-9.59538e-08
-2.88188e-07
-2.79421e-08
-2.12725e-07
-8.58037e-08
-4.04365e-08
1.26592e-07
-1.36504e-07
3.06918e-07
-2.6389e-07
4.11442e-07
-4.02787e-07
4.51498e-07
-5.38787e-07
4.43337e-07
-6.61915e-07
4.01232e-07
-7.65295e-07
3.35619e-07
-8.4409e-07
2.53663e-07
-8.94858e-07
1.60469e-07
-9.15256e-07
6.01263e-08
-9.03962e-07
-4.36079e-08
-8.60768e-07
-1.46845e-07
-7.86764e-07
-2.45275e-07
-6.84663e-07
-3.33778e-07
-5.59291e-07
-4.05847e-07
-4.18323e-07
-4.52774e-07
-2.73243e-07
-4.62811e-07
-1.40337e-07
-4.21094e-07
-4.10091e-08
-3.12053e-07
-1.26813e-07
-5.8681e-08
1.85273e-07
-1.96873e-07
4.4511e-07
-3.79197e-07
5.93767e-07
-5.77427e-07
6.49728e-07
-7.71369e-07
6.37278e-07
-9.47231e-07
5.77094e-07
-1.09556e-06
4.83953e-07
-1.20967e-06
3.67768e-07
-1.28464e-06
2.35442e-07
-1.31694e-06
9.2423e-08
-1.30427e-06
-5.62792e-08
-1.24576e-06
-2.05358e-07
-1.14233e-06
-3.48699e-07
-9.97284e-07
-4.78825e-07
-8.17132e-07
-5.85999e-07
-6.1282e-07
-6.57086e-07
-4.01204e-07
-6.74428e-07
-2.06465e-07
-6.15833e-07
-6.04593e-08
-4.58058e-07
-1.87272e-07
-8.49472e-08
2.70221e-07
-2.83229e-07
6.43392e-07
-5.43407e-07
8.53944e-07
-8.25346e-07
9.31667e-07
-1.10094e-06
9.12869e-07
-1.35136e-06
8.27517e-07
-1.56388e-06
6.96471e-07
-1.72941e-06
5.33304e-07
-1.84109e-06
3.4712e-07
-1.89356e-06
1.44892e-07
-1.88283e-06
-6.70087e-08
-1.80649e-06
-2.81694e-07
-1.66453e-06
-4.90664e-07
-1.46027e-06
-6.83088e-07
-1.20199e-06
-8.44277e-07
-9.05055e-07
-9.5402e-07
-5.9437e-07
-9.85112e-07
-3.06507e-07
-9.03697e-07
-8.98628e-08
-6.74702e-07
-2.77135e-07
-1.22635e-07
3.92856e-07
-4.06236e-07
9.26993e-07
-7.7597e-07
1.22368e-06
-1.17489e-06
1.33059e-06
-1.56423e-06
1.30221e-06
-1.91884e-06
1.18212e-06
-2.22211e-06
9.99746e-07
-2.46224e-06
7.73435e-07
-2.62992e-06
5.14798e-07
-2.71723e-06
2.32206e-07
-2.71738e-06
-6.68584e-08
-2.62462e-06
-3.74462e-07
-2.43613e-06
-6.79148e-07
-2.1535e-06
-9.6572e-07
-1.78575e-06
-1.21203e-06
-1.35347e-06
-1.3863e-06
-8.93397e-07
-1.44518e-06
-4.62115e-07
-1.33498e-06
-1.35583e-07
-1.00123e-06
-4.12718e-07
-1.76762e-07
5.69619e-07
-5.81221e-07
1.33145e-06
-1.10401e-06
1.74647e-06
-1.66437e-06
1.89094e-06
-2.20951e-06
1.84735e-06
-2.70693e-06
1.67954e-06
-3.13625e-06
1.42907e-06
-3.48325e-06
1.12044e-06
-3.73622e-06
7.67761e-07
-3.884e-06
3.79994e-07
-3.91592e-06
-3.49386e-08
-3.81907e-06
-4.7132e-07
-3.58431e-06
-9.13904e-07
-3.20668e-06
-1.34335e-06
-2.69168e-06
-1.72703e-06
-2.06351e-06
-2.01447e-06
-1.37497e-06
-2.13372e-06
-7.15481e-07
-1.99447e-06
-2.10144e-07
-1.50657e-06
-6.22862e-07
-2.55434e-07
8.25052e-07
-8.31682e-07
1.9077e-06
-1.56677e-06
2.48156e-06
-2.34581e-06
2.66998e-06
-3.0984e-06
2.59995e-06
-3.78495e-06
2.36609e-06
-4.38316e-06
2.02727e-06
-4.87856e-06
1.61584e-06
-5.25866e-06
1.14786e-06
-5.50941e-06
6.30744e-07
-5.61569e-06
7.13441e-08
-5.552e-06
-5.35005e-07
-5.29633e-06
-1.16958e-06
-4.82651e-06
-1.81317e-06
-4.13215e-06
-2.42139e-06
-3.23117e-06
-2.91545e-06
-2.19226e-06
-3.17263e-06
-1.1567e-06
-3.03002e-06
-3.42011e-07
-2.32126e-06
-9.64873e-07
-3.73934e-07
1.19899e-06
-1.19788e-06
2.73164e-06
-2.22486e-06
3.50854e-06
-3.2907e-06
3.73581e-06
-4.30507e-06
3.61432e-06
-5.22509e-06
3.28612e-06
-6.03237e-06
2.83456e-06
-6.7182e-06
2.30166e-06
-7.27468e-06
1.70434e-06
-7.68905e-06
1.04512e-06
-7.93759e-06
3.19878e-07
-7.98919e-06
-4.83405e-07
-7.79317e-06
-1.3656e-06
-7.29203e-06
-2.31431e-06
-6.43198e-06
-3.28143e-06
-5.19332e-06
-4.15411e-06
-3.63989e-06
-4.72607e-06
-1.97961e-06
-4.6903e-06
-5.9996e-07
-3.70092e-06
-1.56483e-06
-5.67186e-07
1.76617e-06
-1.75721e-06
3.92167e-06
-3.17563e-06
4.92695e-06
-4.58915e-06
5.14934e-06
-5.89239e-06
4.91756e-06
-7.05135e-06
4.44508e-06
-8.06439e-06
3.8476e-06
-8.94098e-06
3.17825e-06
-9.68973e-06
2.45309e-06
-1.03099e-05
1.66527e-06
-1.07822e-05
7.9219e-07
-1.10658e-05
-1.99808e-07
-1.10828e-05
-1.3486e-06
-1.07196e-05
-2.67747e-06
-9.83699e-06
-4.16408e-06
-8.31192e-06
-5.67918e-06
-6.12806e-06
-6.90992e-06
-3.52033e-06
-7.29803e-06
-1.13106e-06
-6.09018e-06
-2.6959e-06
-9.36523e-07
2.7027e-06
-2.68056e-06
5.6657e-06
-4.5605e-06
6.80689e-06
-6.28033e-06
6.86917e-06
-7.75651e-06
6.39374e-06
-8.9949e-06
5.68347e-06
-1.00351e-05
4.8878e-06
-1.09257e-05
4.06881e-06
-1.17108e-05
3.23821e-06
-1.2421e-05
2.37549e-06
-1.30629e-05
1.43408e-06
-1.35956e-05
3.32899e-07
-1.39562e-05
-9.87991e-07
-1.3982e-05
-2.65165e-06
-1.3435e-05
-4.7111e-06
-1.2026e-05
-7.08818e-06
-9.52104e-06
-9.41489e-06
-5.98124e-06
-1.08378e-05
-2.17723e-06
-9.89419e-06
-4.87313e-06
-1.73215e-06
4.43485e-06
-4.26798e-06
8.20153e-06
-6.36296e-06
8.90188e-06
-7.8223e-06
8.32851e-06
-8.77002e-06
7.34145e-06
-9.35969e-06
6.27314e-06
-9.72361e-06
5.25171e-06
-9.97025e-06
4.31546e-06
-1.01869e-05
3.45485e-06
-1.04418e-05
2.63042e-06
-1.07835e-05
1.77581e-06
-1.12325e-05
7.81867e-07
-1.17658e-05
-4.54727e-07
-1.23121e-05
-2.10535e-06
-1.26405e-05
-4.38267e-06
-1.23856e-05
-7.3431e-06
-1.10402e-05
-1.07603e-05
-8.11028e-06
-1.37677e-05
-3.69202e-06
-1.43125e-05
-8.56514e-06
-3.42717e-06
7.86202e-06
-5.06423e-06
9.83858e-06
-4.74272e-06
8.58037e-06
-3.45766e-06
7.04345e-06
-1.79173e-06
5.67553e-06
-4.54793e-08
4.52689e-06
1.61876e-06
3.58747e-06
3.10741e-06
2.82681e-06
4.36137e-06
2.20089e-06
5.33193e-06
1.65985e-06
5.96112e-06
1.14662e-06
6.14874e-06
5.9425e-07
5.7609e-06
-6.68881e-08
4.81753e-06
-1.16197e-06
3.14145e-06
-2.70659e-06
7.65481e-07
-4.96714e-06
-1.94528e-06
-8.04955e-06
-3.96459e-06
-1.17484e-05
-3.46285e-06
-1.48142e-05
-1.2028e-05
7.86202e-06
1.77006e-05
2.6281e-05
3.33244e-05
3.9e-05
4.35268e-05
4.71143e-05
4.99411e-05
5.2142e-05
5.38019e-05
5.49485e-05
5.55427e-05
5.54759e-05
5.43139e-05
5.16073e-05
4.66401e-05
3.85906e-05
2.68422e-05
1.2028e-05
)
;

boundaryField
{
    movingWall
    {
        type            calculated;
        value           uniform 0;
    }
    fixedWalls
    {
        type            calculated;
        value           uniform 0;
    }
    frontAndBack
    {
        type            empty;
        value           nonuniform 0();
    }
}


// ************************************************************************* //
