/*--------------------------------*- C++ -*----------------------------------*\
  =========                 |
  \\      /  F ield         | OpenFOAM: The Open Source CFD Toolbox
   \\    /   O peration     | Website:  https://openfoam.org
    \\  /    A nd           | Version:  7
     \\/     M anipulation  |
\*---------------------------------------------------------------------------*/
FoamFile
{
    version     2.0;
    format      ascii;
    class       volVectorField;
    location    "0.1";
    object      U;
}
// * * * * * * * * * * * * * * * * * * * * * * * * * * * * * * * * * * * * * //

dimensions      [0 1 -1 0 0 0 0];

internalField   nonuniform List<vector> 
400
(
(-1.16569e-06 2.34684e-06 0)
(-2.23453e-05 2.44336e-05 0)
(-7.3792e-05 4.33382e-05 0)
(-0.000142955 5.33641e-05 0)
(-0.000217557 5.51601e-05 0)
(-0.000289138 5.09703e-05 0)
(-0.000351851 4.28128e-05 0)
(-0.000401768 3.21266e-05 0)
(-0.00043634 1.98833e-05 0)
(-0.000454022 6.77957e-06 0)
(-0.00045407 -6.6122e-06 0)
(-0.000436462 -1.97501e-05 0)
(-0.000401906 -3.20505e-05 0)
(-0.000351926 -4.27948e-05 0)
(-0.000289081 -5.09833e-05 0)
(-0.000217339 -5.51494e-05 0)
(-0.000142631 -5.32615e-05 0)
(-7.35807e-05 -4.30943e-05 0)
(-2.21238e-05 -2.40638e-05 0)
(-1.29341e-06 -2.19697e-06 0)
(-1.31388e-05 4.52207e-05 0)
(-7.2345e-05 0.000146646 0)
(-0.000183512 0.000219511 0)
(-0.000320621 0.000254632 0)
(-0.000463163 0.000257122 0)
(-0.000597804 0.000235517 0)
(-0.000715128 0.000197294 0)
(-0.000808394 0.00014798 0)
(-0.000872995 9.1563e-05 0)
(-0.000906049 3.11269e-05 0)
(-0.000906143 -3.06596e-05 0)
(-0.00087324 -9.1228e-05 0)
(-0.000808684 -0.000147868 0)
(-0.000715322 -0.000197419 0)
(-0.000597771 -0.000235793 0)
(-0.000462836 -0.000257367 0)
(-0.000320043 -0.000254619 0)
(-0.000182876 -0.000219072 0)
(-7.18103e-05 -0.000145813 0)
(-1.30237e-05 -4.45804e-05 0)
(-1.8541e-05 0.000136711 0)
(-0.000100976 0.000369167 0)
(-0.000254303 0.000520966 0)
(-0.000441267 0.000588812 0)
(-0.000633812 0.000587519 0)
(-0.000814564 0.000535287 0)
(-0.000971512 0.000447424 0)
(-0.00109605 0.000335324 0)
(-0.00118226 0.00020743 0)
(-0.00122641 7.04897e-05 0)
(-0.00122667 -6.95133e-05 0)
(-0.00118294 -0.000206776 0)
(-0.00109695 -0.000335222 0)
(-0.000972336 -0.00044793 0)
(-0.000815025 -0.000536231 0)
(-0.000633722 -0.000588515 0)
(-0.00044063 -0.000589345 0)
(-0.000253368 -0.000520607 0)
(-0.000100067 -0.000367841 0)
(-1.82254e-05 -0.000134991 0)
(-2.44537e-05 0.000253586 0)
(-0.000133889 0.000656713 0)
(-0.000337727 0.000910045 0)
(-0.000585814 0.00101849 0)
(-0.000840739 0.00101075 0)
(-0.00107964 0.000918207 0)
(-0.00128686 0.000766382 0)
(-0.00145126 0.000574059 0)
(-0.00156516 0.000355186 0)
(-0.0016237 0.000120999 0)
(-0.00162441 -0.000118452 0)
(-0.00156714 -0.000353373 0)
(-0.00145402 -0.00057352 0)
(-0.00128974 -0.000767292 0)
(-0.00108194 -0.000920273 0)
(-0.000841965 -0.00101321 0)
(-0.000585814 -0.00102026 0)
(-0.000336844 -0.000910138 0)
(-0.000132735 -0.000654721 0)
(-2.40033e-05 -0.000250317 0)
(-3.3823e-05 0.000410549 0)
(-0.000184209 0.00104299 0)
(-0.000463378 0.00143219 0)
(-0.00080242 0.00159432 0)
(-0.0011503 0.00157731 0)
(-0.00147607 0.00143048 0)
(-0.00175865 0.00119308 0)
(-0.001983 0.000893688 0)
(-0.00213874 0.00055346 0)
(-0.00221924 0.000189502 0)
(-0.00222105 -0.000182812 0)
(-0.0021438 -0.00054843 0)
(-0.00199024 -0.000891573 0)
(-0.00176658 -0.00119438 0)
(-0.00148309 -0.00143471 0)
(-0.00115514 -0.00158297 0)
(-0.000804539 -0.00159923 0)
(-0.000463228 -0.00143413 0)
(-0.000182938 -0.00104077 0)
(-3.32229e-05 -0.000405321 0)
(-4.8419e-05 0.000630562 0)
(-0.000261132 0.00158104 0)
(-0.000653642 0.00215703 0)
(-0.00112886 0.00239202 0)
(-0.00161561 0.00236128 0)
(-0.00207112 0.00213916 0)
(-0.00246638 0.00178373 0)
(-0.00278063 0.00133685 0)
(-0.00299948 0.000829422 0)
(-0.00311356 0.000286443 0)
(-0.00311784 -0.000269509 0)
(-0.00301151 -0.000816199 0)
(-0.00279808 -0.0013302 0)
(-0.00248592 -0.00178494 0)
(-0.00208918 -0.00214746 0)
(-0.00162923 -0.00237374 0)
(-0.00113654 -0.00240416 0)
(-0.000655922 -0.00216408 0)
(-0.00026019 -0.00158004 0)
(-4.76769e-05 -0.000623123 0)
(-7.04542e-05 0.000946091 0)
(-0.00037585 0.00234613 0)
(-0.000935523 0.00318312 0)
(-0.00161075 0.00351833 0)
(-0.00230105 0.00346687 0)
(-0.0029467 0.00313852 0)
(-0.00350736 0.00261754 0)
(-0.00395412 0.00196407 0)
(-0.00426669 0.00122226 0)
(-0.00443161 0.000427818 0)
(-0.00444136 -0.00038681 0)
(-0.00429413 -0.00118942 0)
(-0.00399425 -0.00194582 0)
(-0.00355297 -0.00261698 0)
(-0.0029899 -0.00315444 0)
(-0.00233514 -0.00349354 0)
(-0.00163199 -0.00354649 0)
(-0.000944321 -0.00320263 0)
(-0.00037643 -0.00235007 0)
(-6.96276e-05 -0.000936649 0)
(-0.000103121 0.00140323 0)
(-0.000544204 0.00344461 0)
(-0.00134688 0.00464934 0)
(-0.0023118 0.00512342 0)
(-0.00329638 0.00504065 0)
(-0.00421703 0.00456148 0)
(-0.00501755 0.00380688 0)
(-0.00565754 0.00286217 0)
(-0.0061083 0.00178946 0)
(-0.00635031 0.000638991 0)
(-0.00637194 -0.00054337 0)
(-0.00616939 -0.00171158 0)
(-0.00574742 -0.00281611 0)
(-0.00512075 -0.00379992 0)
(-0.00431643 -0.00459186 0)
(-0.00337706 -0.00509701 0)
(-0.00236476 -0.00518671 0)
(-0.00137175 -0.00469798 0)
(-0.000549208 -0.00346283 0)
(-0.000102372 -0.0013932 0)
(-0.000151062 0.00206763 0)
(-0.000788898 0.00502685 0)
(-0.00194154 0.00675115 0)
(-0.00332208 0.00741807 0)
(-0.00472817 0.00728841 0)
(-0.00604297 0.00659534 0)
(-0.0071886 0.0055114 0)
(-0.00810884 0.0041564 0)
(-0.00876319 0.00261661 0)
(-0.0091231 0.000961475 0)
(-0.00917029 -0.000745163 0)
(-0.00889681 -0.00243827 0)
(-0.00830651 -0.0040466 0)
(-0.00741753 -0.00548672 0)
(-0.0062664 -0.00665366 0)
(-0.0049132 -0.00740733 0)
(-0.00344769 -0.00755838 0)
(-0.00200455 -0.00686687 0)
(-0.000805335 -0.00508229 0)
(-0.000150903 -0.00206161 0)
(-0.000220948 0.00303297 0)
(-0.00114216 0.00730559 0)
(-0.00279529 0.00976342 0)
(-0.00476767 0.0106978 0)
(-0.0067727 0.0104986 0)
(-0.00864815 0.00950387 0)
(-0.0102871 0.00795837 0)
(-0.0116124 0.00602886 0)
(-0.0125672 0.00383321 0)
(-0.01311 0.00146545 0)
(-0.0132116 -0.000987517 0)
(-0.0128555 -0.00343546 0)
(-0.012041 -0.00577669 0)
(-0.0107877 -0.00788908 0)
(-0.00914262 -0.00961643 0)
(-0.00718931 -0.0107495 0)
(-0.00505788 -0.0110066 0)
(-0.0029475 -0.0100323 0)
(-0.00118724 -0.00745343 0)
(-0.000223163 -0.00304416 0)
(-0.000322314 0.00443277 0)
(-0.00164947 0.0105811 0)
(-0.004014 0.0140712 0)
(-0.00682295 0.0153743 0)
(-0.00967193 0.0150728 0)
(-0.0123379 0.0136561 0)
(-0.0146768 0.0114703 0)
(-0.016585 0.00874503 0)
(-0.0179846 0.00563818 0)
(-0.0188155 0.00227314 0)
(-0.019031 -0.00123594 0)
(-0.0185981 -0.00476763 0)
(-0.0175027 -0.00817906 0)
(-0.0157587 -0.0112919 0)
(-0.0134205 -0.0138713 0)
(-0.0106 -0.0155993 0)
(-0.00748494 -0.0160488 0)
(-0.00437422 -0.0146856 0)
(-0.00176576 -0.0109511 0)
(-0.000332542 -0.00449697 0)
(-0.000468899 0.00645694 0)
(-0.0023754 0.0152758 0)
(-0.00574541 0.0202103 0)
(-0.00972732 0.0220153 0)
(-0.0137529 0.0215623 0)
(-0.0175202 0.0195611 0)
(-0.020841 0.0164998 0)
(-0.0235815 0.0126911 0)
(-0.0256393 0.00834034 0)
(-0.0269301 0.00360193 0)
(-0.0273805 -0.00138303 0)
(-0.0269262 -0.00646073 0)
(-0.0255211 -0.0114367 0)
(-0.0231539 -0.0160539 0)
(-0.0198706 -0.0199572 0)
(-0.0158079 -0.0226526 0)
(-0.0112306 -0.023474 0)
(-0.00659244 -0.0215959 0)
(-0.00266782 -0.0161683 0)
(-0.000502937 -0.00666681 0)
(-0.000681448 0.00937664 0)
(-0.00341446 0.0219832 0)
(-0.00819932 0.0289199 0)
(-0.0138101 0.0313905 0)
(-0.0194515 0.0307067 0)
(-0.0247248 0.0279028 0)
(-0.0293965 0.0236669 0)
(-0.0333065 0.0184194 0)
(-0.0363304 0.0124175 0)
(-0.0383578 0.00583889 0)
(-0.0392804 -0.00116168 0)
(-0.0389781 -0.00840966 0)
(-0.0373355 -0.0156608 0)
(-0.0342729 -0.0225586 0)
(-0.0297798 -0.0285696 0)
(-0.0239817 -0.0329112 0)
(-0.0172243 -0.0345046 0)
(-0.0101956 -0.0320145 0)
(-0.00414471 -0.0240953 0)
(-0.000781802 -0.00996581 0)
(-0.000995272 0.0135869 0)
(-0.00491693 0.0315445 0)
(-0.0116898 0.0412123 0)
(-0.0195345 0.0445172 0)
(-0.0273432 0.0434562 0)
(-0.0346101 0.0395503 0)
(-0.0410736 0.0337722 0)
(-0.0465699 0.0266801 0)
(-0.0509735 0.0185786 0)
(-0.0541608 0.00964179 0)
(-0.0559854 7.42698e-09 0)
(-0.0562458 -0.010189 0)
(-0.054698 -0.020681 0)
(-0.051105 -0.0310322 0)
(-0.0452808 -0.0404719 0)
(-0.0372163 -0.0477573 0)
(-0.0272634 -0.0510715 0)
(-0.0164164 -0.048104 0)
(-0.00675719 -0.0365446 0)
(-0.00128405 -0.0151696 0)
(-0.0014832 0.0196947 0)
(-0.00715725 0.0451813 0)
(-0.0167321 0.0584611 0)
(-0.0275815 0.0626769 0)
(-0.0381734 0.0609301 0)
(-0.047916 0.0554865 0)
(-0.0565794 0.0477258 0)
(-0.0640601 0.0383814 0)
(-0.0702912 0.0277898 0)
(-0.0751787 0.0160691 0)
(-0.07855 0.00323835 0)
(-0.0801369 -0.0106845 0)
(-0.0795244 -0.0255812 0)
(-0.0761574 -0.0410383 0)
(-0.0694374 -0.0560759 0)
(-0.0589098 -0.0688021 0)
(-0.0446212 -0.0761064 0)
(-0.0277742 -0.0737015 0)
(-0.0118063 -0.0570981 0)
(-0.00231943 -0.0239572 0)
(-0.00233305 0.028775 0)
(-0.010722 0.0647766 0)
(-0.0242452 0.0824729 0)
(-0.0389427 0.0872682 0)
(-0.0527482 0.0841221 0)
(-0.0650989 0.0764331 0)
(-0.0759412 0.0661437 0)
(-0.0853622 0.0542019 0)
(-0.0934745 0.0409511 0)
(-0.100334 0.0263746 0)
(-0.105859 0.0102355 0)
(-0.109764 -0.00780628 0)
(-0.111465 -0.0280241 0)
(-0.109997 -0.0504016 0)
(-0.104044 -0.0740681 0)
(-0.0921511 -0.0965072 0)
(-0.0732916 -0.112643 0)
(-0.0481943 -0.114395 0)
(-0.0218888 -0.092146 0)
(-0.00466597 -0.0398247 0)
(-0.00414869 0.043286 0)
(-0.0171246 0.0937662 0)
(-0.0359549 0.115767 0)
(-0.0546701 0.11948 0)
(-0.0708363 0.113135 0)
(-0.0843369 0.10179 0)
(-0.0956041 0.0880888 0)
(-0.105138 0.0732017 0)
(-0.113427 0.0574368 0)
(-0.120868 0.0405528 0)
(-0.127655 0.021897 0)
(-0.133657 0.000482999 0)
(-0.138396 -0.0248744 0)
(-0.140743 -0.0551965 0)
(-0.13865 -0.090569 0)
(-0.129274 -0.128554 0)
(-0.109555 -0.162033 0)
(-0.0781902 -0.177067 0)
(-0.0400846 -0.153174 0)
(-0.0100119 -0.0710443 0)
(-0.00853677 0.0670736 0)
(-0.0297069 0.132805 0)
(-0.0538768 0.155503 0)
(-0.0723577 0.154532 0)
(-0.0841757 0.141986 0)
(-0.0914316 0.12478 0)
(-0.0958576 0.106405 0)
(-0.0986616 0.0882624 0)
(-0.100802 0.0705415 0)
(-0.103051 0.0526685 0)
(-0.105989 0.0334488 0)
(-0.109974 0.011025 0)
(-0.115125 -0.0171759 0)
(-0.120929 -0.0540782 0)
(-0.125826 -0.101698 0)
(-0.126635 -0.159433 0)
(-0.118652 -0.22017 0)
(-0.0970746 -0.264874 0)
(-0.0610525 -0.256814 0)
(-0.0190816 -0.139705 0)
(-0.0178989 0.141862 0)
(-0.0468256 0.211635 0)
(-0.0528162 0.200515 0)
(-0.0430169 0.171511 0)
(-0.0268808 0.141998 0)
(-0.00913485 0.115843 0)
(0.00823192 0.0937367 0)
(0.0241561 0.0752787 0)
(0.0379591 0.0595489 0)
(0.049144 0.0453385 0)
(0.0571918 0.0311132 0)
(0.061296 0.0147676 0)
(0.0602719 -0.00670285 0)
(0.0537152 -0.037402 0)
(0.0406845 -0.0824913 0)
(0.0205703 -0.145893 0)
(-0.00474039 -0.225663 0)
(-0.029485 -0.305571 0)
(-0.0407346 -0.341719 0)
(-0.0155663 -0.234046 0)
(0.0952504 0.0991166 0)
(0.126995 0.138332 0)
(0.212864 0.130197 0)
(0.297047 0.111884 0)
(0.363519 0.0927454 0)
(0.414765 0.0752343 0)
(0.454961 0.0601163 0)
(0.486722 0.0475164 0)
(0.511632 0.0372079 0)
(0.530737 0.0287709 0)
(0.544619 0.0216536 0)
(0.553203 0.0151436 0)
(0.555764 0.00834452 0)
(0.55006 0.000290056 0)
(0.531766 -0.0111354 0)
(0.495619 -0.0287087 0)
(0.434713 -0.0567288 0)
(0.336035 -0.101937 0)
(0.199536 -0.155936 0)
(0.116281 -0.136481 0)
)
;

boundaryField
{
    movingWall
    {
        type            fixedValue;
        value           uniform (1 0 0);
    }
    fixedWalls
    {
        type            noSlip;
    }
    frontAndBack
    {
        type            empty;
    }
}


// ************************************************************************* //
