/*--------------------------------*- C++ -*----------------------------------*\
  =========                 |
  \\      /  F ield         | OpenFOAM: The Open Source CFD Toolbox
   \\    /   O peration     | Website:  https://openfoam.org
    \\  /    A nd           | Version:  9
     \\/     M anipulation  |
\*---------------------------------------------------------------------------*/
FoamFile
{
    format      ascii;
    class       volScalarField;
    location    "0.5";
    object      p;
}
// * * * * * * * * * * * * * * * * * * * * * * * * * * * * * * * * * * * * * //

dimensions      [ 0 2 -2 0 0 0 0 ];

internalField   nonuniform List<scalar> 
400
(
6.74942e-07
-0.00337012
-0.00555567
-0.00661786
-0.00664438
-0.00576822
-0.00397932
-0.00109556
0.00322172
0.00947622
0.0183359
0.030572
0.0468635
0.0673832
0.0911566
0.115347
0.135161
0.145442
0.144115
0.133676
0.000648471
-0.00230618
-0.003989
-0.00481438
-0.00475337
-0.0038347
-0.00199424
0.000961312
0.00534626
0.0116067
0.0203193
0.0321374
0.0476233
0.0668901
0.0890499
0.111562
0.130156
0.140316
0.140348
0.13144
0.0016414
-0.00140115
-0.00275119
-0.00338786
-0.00325247
-0.00231472
-0.00047373
0.00246889
0.00679983
0.0129106
0.0213052
0.0325665
0.047225
0.0654541
0.0865249
0.108193
0.126454
0.136943
0.137828
0.128686
0.00271338
-0.000785239
-0.00196536
-0.0024816
-0.00230457
-0.00138167
0.000405228
0.00324854
0.00740034
0.0131977
0.0210881
0.0316272
0.0453897
0.0627037
0.0831124
0.104656
0.123436
0.134867
0.136474
0.12598
0.00358888
-0.000533619
-0.00162618
-0.00207319
-0.00188743
-0.00100762
0.000688112
0.00337268
0.00725058
0.0125959
0.0198021
0.0294188
0.042111
0.05843
0.0782728
0.10004
0.119947
0.133032
0.135773
0.123684
0.00400065
-0.000811784
-0.00185643
-0.00226913
-0.00209596
-0.00127038
0.00032165
0.00281777
0.00635893
0.0111444
0.0175112
0.0260141
0.0374358
0.0525976
0.0718197
0.0939683
0.115473
0.130981
0.135572
0.122132
0.00368774
-0.00182014
-0.00282076
-0.00320629
-0.00303902
-0.00224709
-0.000736081
0.00157929
0.00476013
0.0089198
0.0143361
0.021575
0.0315505
0.0453784
0.0638518
0.0864088
0.10986
0.128564
0.135908
0.121756
0.00238876
-0.00376544
-0.0046758
-0.00499375
-0.00477922
-0.00395446
-0.00245695
-0.000270455
0.00257248
0.00609206
0.0105062
0.0163952
0.0248054
0.0371481
0.0547107
0.0775928
0.103192
0.12581
0.136933
0.123181
-0.000169627
-0.00685532
-0.00755628
-0.00769678
-0.00731882
-0.00633951
-0.00474008
-0.00258691
-1.41097e-05
0.00290498
0.00633314
0.0108674
0.0176786
0.0284541
0.0449633
0.0680216
0.095825
0.122964
0.138952
0.127291
-0.00429278
-0.0112945
-0.0115619
-0.011323
-0.0105908
-0.00927863
-0.00742001
-0.00517044
-0.00276404
-0.000358263
0.00216666
0.00543007
0.0107158
0.0199538
0.0353517
0.0584449
0.0884001
0.120517
0.14246
0.135238
-0.0103532
-0.017279
-0.0167386
-0.0158045
-0.0144488
-0.012578
-0.0102773
-0.00778576
-0.00542327
-0.00341041
-0.00164969
0.00051135
0.00445961
0.0123295
0.0267015
0.0497833
0.0818042
0.119208
0.148168
0.148428
-0.0188512
-0.0249862
-0.0230541
-0.0209777
-0.0186582
-0.0159772
-0.0130522
-0.0101833
-0.0077464
-0.0059932
-0.00482009
-0.00352516
-0.000623193
0.00619111
0.0197996
0.0429982
0.0770668
0.119981
0.157006
0.168504
-0.030518
-0.0345545
-0.0303637
-0.0265605
-0.0228891
-0.0191554
-0.0154606
-0.0121195
-0.00951982
-0.00790338
-0.00712784
-0.00642247
-0.00420262
0.0019852
0.0152631
0.0389227
0.0751905
0.123874
0.170071
0.197383
-0.0464958
-0.046035
-0.0383547
-0.0321203
-0.0267067
-0.0217381
-0.0172075
-0.0133729
-0.0105769
-0.0090074
-0.00845209
-0.00805385
-0.00612481
-7.43808e-05
0.013421
0.0380812
0.0769286
0.131824
0.188466
0.237413
-0.0686588
-0.0593046
-0.0464741
-0.037038
-0.0295655
-0.0233086
-0.0180037
-0.0137577
-0.0108067
-0.00924587
-0.00877067
-0.00842724
-0.00642639
-4.39582e-05
0.0142308
0.0405364
0.0825601
0.144377
0.212967
0.291651
-0.100107
-0.0739655
-0.0538982
-0.0405072
-0.0308354
-0.023447
-0.0176017
-0.0131477
-0.0101656
-0.00863578
-0.00815616
-0.00768189
-0.00533332
0.00174012
0.0172381
0.0457746
0.0917191
0.161407
0.243733
0.364478
-0.145533
-0.0891231
-0.0594582
-0.0415714
-0.0298819
-0.0218114
-0.015856
-0.0115129
-0.0086942
-0.00727482
-0.00677449
-0.00608266
-0.00325697
0.00465722
0.0215433
0.0525834
0.103021
0.18191
0.281281
0.462442
-0.211283
-0.101607
-0.0602675
-0.038715
-0.0259744
-0.0180944
-0.0126795
-0.00886512
-0.00645498
-0.00527793
-0.00482702
-0.00397533
-0.000766843
0.00780571
0.0257574
0.0588418
0.113495
0.202949
0.327864
0.594538
-0.307024
-0.101371
-0.0483386
-0.0287939
-0.0178339
-0.0117191
-0.00779106
-0.00504145
-0.00334334
-0.00260852
-0.00239711
-0.00164467
0.0015442
0.0101387
0.028171
0.0616886
0.118219
0.216445
0.375289
0.775883
-0.437199
-0.0777844
-0.0197672
-0.0111779
-0.0058246
-0.00320611
-0.00162105
-0.000363698
0.000392086
0.000509873
0.00026538
0.000585134
0.00324078
0.0110616
0.0280014
0.0599683
0.114726
0.21475
0.402836
0.977343
)
;

boundaryField
{
    movingWall
    {
        type            zeroGradient;
    }
    fixedWalls
    {
        type            zeroGradient;
    }
    frontAndBack
    {
        type            empty;
    }
}


// ************************************************************************* //
