/*--------------------------------*- C++ -*----------------------------------*\
  =========                 |
  \\      /  F ield         | OpenFOAM: The Open Source CFD Toolbox
   \\    /   O peration     | Website:  https://openfoam.org
    \\  /    A nd           | Version:  9
     \\/     M anipulation  |
\*---------------------------------------------------------------------------*/
FoamFile
{
    format      ascii;
    class       surfaceScalarField;
    location    "0.5";
    object      phi;
}
// * * * * * * * * * * * * * * * * * * * * * * * * * * * * * * * * * * * * * //

dimensions      [ 0 3 -1 0 0 0 0 ];

internalField   nonuniform List<scalar> 
760
(
1.01674e-08
-1.01907e-08
-5.73067e-08
6.74739e-08
-1.60809e-07
1.03502e-07
-2.76094e-07
1.15286e-07
-3.9416e-07
1.18066e-07
-5.14574e-07
1.20414e-07
-6.40361e-07
1.25787e-07
-7.75055e-07
1.34694e-07
-9.20973e-07
1.45917e-07
-1.07726e-06
1.56287e-07
-1.23715e-06
1.59895e-07
-1.38454e-06
1.47388e-07
-1.49085e-06
1.06303e-07
-1.51497e-06
2.41264e-08
-1.41055e-06
-1.04424e-07
-1.14706e-06
-2.63489e-07
-7.44246e-07
-4.02813e-07
-3.03085e-07
-4.41161e-07
-2.29211e-10
-3.02856e-07
-2.29001e-10
-3.59539e-08
2.57632e-08
-2.30681e-07
2.62201e-07
-5.12745e-07
3.85566e-07
-8.28539e-07
4.3108e-07
-1.15419e-06
4.43715e-07
-1.48548e-06
4.51701e-07
-1.82704e-06
4.67351e-07
-2.18497e-06
4.92622e-07
-2.56159e-06
5.22536e-07
-2.95016e-06
5.44858e-07
-3.32864e-06
5.38382e-07
-3.6534e-06
4.72142e-07
-3.85562e-06
3.08528e-07
-3.84631e-06
1.48186e-08
-3.53604e-06
-4.14697e-07
-2.87823e-06
-9.21302e-07
-1.93038e-06
-1.35066e-06
-9.06847e-07
-1.4647e-06
-1.60327e-07
-1.04938e-06
-1.60556e-07
-1.07935e-07
1.33698e-07
-4.33909e-07
5.88176e-07
-8.79116e-07
8.30773e-07
-1.37088e-06
9.22845e-07
-1.87492e-06
9.47758e-07
-2.38316e-06
9.5994e-07
-2.89973e-06
9.83918e-07
-3.43059e-06
1.02348e-06
-3.97567e-06
1.06762e-06
-4.52131e-06
1.0905e-06
-5.03253e-06
1.0496e-06
-5.44661e-06
8.86226e-07
-5.67193e-06
5.33844e-07
-5.5972e-06
-5.99117e-08
-5.11854e-06
-8.93358e-07
-4.1871e-06
-1.85274e-06
-2.87715e-06
-2.66061e-06
-1.45011e-06
-2.89174e-06
-3.51193e-07
-2.14829e-06
-5.11748e-07
-1.88548e-07
3.22246e-07
-6.483e-07
1.04793e-06
-1.24473e-06
1.4272e-06
-1.88943e-06
1.56754e-06
-2.54096e-06
1.5993e-06
-3.18842e-06
1.60739e-06
-3.83487e-06
1.63038e-06
-4.48521e-06
1.67382e-06
-5.13666e-06
1.71907e-06
-5.77035e-06
1.72419e-06
-6.3436e-06
1.62285e-06
-6.78502e-06
1.32764e-06
-6.99565e-06
7.44471e-07
-6.86023e-06
-1.9533e-07
-6.27291e-06
-1.48068e-06
-5.18033e-06
-2.94531e-06
-3.64643e-06
-4.19452e-06
-1.93154e-06
-4.60663e-06
-5.32282e-07
-3.54755e-06
-1.04403e-06
-2.71143e-07
5.9339e-07
-8.62828e-07
1.63961e-06
-1.59705e-06
2.16143e-06
-2.37008e-06
2.34057e-06
-3.13557e-06
2.36479e-06
-3.88115e-06
2.35297e-06
-4.60939e-06
2.35862e-06
-5.32452e-06
2.38894e-06
-6.0225e-06
2.41705e-06
-6.68274e-06
2.38444e-06
-7.26159e-06
2.2017e-06
-7.68919e-06
1.75524e-06
-7.87186e-06
9.27149e-07
-7.70187e-06
-3.65318e-07
-7.07618e-06
-2.10637e-06
-5.92862e-06
-4.09288e-06
-4.28773e-06
-5.8354e-06
-2.37475e-06
-6.51961e-06
-7.1007e-07
-5.21223e-06
-1.7541e-06
-3.52962e-07
9.46351e-07
-1.07066e-06
2.35731e-06
-1.92595e-06
3.01672e-06
-2.7997e-06
3.21432e-06
-3.64257e-06
3.20766e-06
-4.44256e-06
3.15296e-06
-5.20308e-06
3.11914e-06
-5.92922e-06
3.11509e-06
-6.61819e-06
3.10602e-06
-7.25202e-06
3.01826e-06
-7.7927e-06
2.74238e-06
-8.18058e-06
2.14311e-06
-8.33646e-06
1.08303e-06
-8.16702e-06
-5.34757e-07
-7.5735e-06
-2.69988e-06
-6.46951e-06
-5.19686e-06
-4.8289e-06
-7.47602e-06
-2.80135e-06
-8.54716e-06
-8.99827e-07
-7.11375e-06
-2.65393e-06
-4.33247e-07
1.3796e-06
-1.26778e-06
3.19184e-06
-2.2235e-06
3.97245e-06
-3.16666e-06
4.15748e-06
-4.04742e-06
4.08841e-06
-4.85646e-06
3.96201e-06
-5.6001e-06
3.86278e-06
-6.28643e-06
3.80142e-06
-6.91673e-06
3.73632e-06
-7.47976e-06
3.58129e-06
-7.94858e-06
3.2112e-06
-8.27993e-06
2.47447e-06
-8.41499e-06
1.21809e-06
-8.27914e-06
-6.70607e-07
-7.77957e-06
-3.19945e-06
-6.80714e-06
-6.1693e-06
-5.2701e-06
-9.01305e-06
-3.21871e-06
-1.05985e-05
-1.11501e-06
-9.21746e-06
-3.76894e-06
-5.12893e-07
1.89249e-06
-1.45251e-06
4.13146e-06
-2.48377e-06
5.0037e-06
-3.46098e-06
5.13469e-06
-4.33741e-06
4.96484e-06
-5.10956e-06
4.73416e-06
-5.78909e-06
4.5423e-06
-6.38934e-06
4.40167e-06
-6.91816e-06
4.26514e-06
-7.37401e-06
4.03713e-06
-7.74446e-06
3.58165e-06
-8.00611e-06
2.73612e-06
-8.12363e-06
1.33561e-06
-8.04418e-06
-7.50064e-07
-7.68468e-06
-3.55896e-06
-6.91755e-06
-6.93642e-06
-5.58461e-06
-1.0346e-05
-3.61483e-06
-1.25683e-05
-1.36264e-06
-1.14696e-05
-5.13158e-06
-5.94493e-07
2.48698e-06
-1.6253e-06
5.16227e-06
-2.7023e-06
6.0807e-06
-3.67357e-06
6.10596e-06
-4.50084e-06
5.79211e-06
-5.19032e-06
5.42364e-06
-5.76166e-06
5.11365e-06
-6.23531e-06
4.87531e-06
-6.62719e-06
4.65702e-06
-6.94684e-06
4.35679e-06
-7.1975e-06
3.83231e-06
-7.37651e-06
2.91513e-06
-7.47299e-06
1.43209e-06
-7.45831e-06
-7.64747e-07
-7.26544e-06
-3.75183e-06
-6.75928e-06
-7.44258e-06
-5.72489e-06
-1.13804e-05
-3.9577e-06
-1.43355e-05
-1.64025e-06
-1.37871e-05
-6.77183e-06
-6.82671e-07
3.16966e-06
-1.78831e-06
6.26791e-06
-2.87498e-06
7.16737e-06
-3.7945e-06
7.02548e-06
-4.52478e-06
6.52239e-06
-5.08641e-06
5.98527e-06
-5.50945e-06
5.53669e-06
-5.82247e-06
5.18834e-06
-6.04966e-06
4.8842e-06
-6.21122e-06
4.51834e-06
-6.32509e-06
3.94619e-06
-6.40799e-06
2.99804e-06
-6.47267e-06
1.49677e-06
-6.51653e-06
-7.20888e-07
-6.49633e-06
-3.77202e-06
-6.28532e-06
-7.65358e-06
-5.6316e-06
-1.20341e-05
-4.19804e-06
-1.57691e-05
-1.93365e-06
-1.60515e-05
-8.70548e-06
-7.84599e-07
3.95425e-06
-1.94465e-06
7.42796e-06
-2.99576e-06
8.21848e-06
-3.80984e-06
7.83956e-06
-4.39141e-06
7.10396e-06
-4.78061e-06
6.37447e-06
-5.01965e-06
5.77574e-06
-5.14503e-06
5.31372e-06
-5.18787e-06
4.92704e-06
-5.17694e-06
4.5074e-06
-5.14212e-06
3.91137e-06
-5.11647e-06
2.97239e-06
-5.13397e-06
1.51426e-06
-5.21869e-06
-6.36169e-07
-5.35858e-06
-3.63213e-06
-5.45349e-06
-7.55868e-06
-5.24274e-06
-1.22449e-05
-4.27395e-06
-1.67379e-05
-2.21537e-06
-1.81101e-05
-1.09209e-05
-9.10485e-07
4.86474e-06
-2.09646e-06
8.61394e-06
-3.05252e-06
9.17454e-06
-3.69626e-06
8.48329e-06
-4.07213e-06
7.47982e-06
-4.24473e-06
6.54707e-06
-4.26886e-06
5.79987e-06
-4.18713e-06
5.23198e-06
-4.03467e-06
4.77458e-06
-3.84526e-06
4.318e-06
-3.65673e-06
3.72284e-06
-3.51417e-06
2.82982e-06
-3.4691e-06
1.4692e-06
-3.57105e-06
-5.34224e-07
-3.84426e-06
-3.35892e-06
-4.23258e-06
-7.17035e-06
-4.5007e-06
-1.19767e-05
-4.11613e-06
-1.71224e-05
-2.44388e-06
-1.97823e-05
-1.33647e-05
-1.07353e-06
5.93827e-06
-2.2404e-06
9.78081e-06
-3.01916e-06
9.9533e-06
-3.41199e-06
8.87612e-06
-3.51867e-06
7.5865e-06
-3.43141e-06
6.45981e-06
-3.21551e-06
5.58396e-06
-2.91573e-06
4.9322e-06
-2.56678e-06
4.42563e-06
-2.20278e-06
3.954e-06
-1.86461e-06
3.38467e-06
-1.60448e-06
2.56969e-06
-1.48677e-06
1.35149e-06
-1.58301e-06
-4.37983e-07
-1.95494e-06
-2.98699e-06
-2.60371e-06
-6.52158e-06
-3.35562e-06
-1.12248e-05
-3.65167e-06
-1.68264e-05
-2.56349e-06
-2.08705e-05
-1.59282e-05
-1.28779e-06
7.22607e-06
-2.35708e-06
1.08501e-05
-2.84072e-06
1.04369e-05
-2.88208e-06
8.91748e-06
-2.65037e-06
7.3548e-06
-2.26358e-06
6.07302e-06
-1.79119e-06
5.11157e-06
-1.27344e-06
4.41445e-06
-7.38572e-07
3.89077e-06
-2.15636e-07
3.43106e-06
2.56552e-07
2.91248e-06
6.23852e-07
2.20239e-06
8.14228e-07
1.16111e-06
7.39403e-07
-3.63158e-07
3.03668e-07
-2.55125e-06
-5.57139e-07
-5.66077e-06
-1.76447e-06
-1.00175e-05
-2.80398e-06
-1.57869e-05
-2.50115e-06
-2.11733e-05
-1.84294e-05
-1.5589e-06
8.78496e-06
-2.38684e-06
1.1678e-05
-2.40562e-06
1.04557e-05
-1.97483e-06
8.4867e-06
-1.33678e-06
6.71674e-06
-6.22493e-07
5.35873e-06
1.07242e-07
4.38184e-06
8.26743e-07
3.69495e-06
1.52155e-06
3.19596e-06
2.1733e-06
2.77931e-06
2.7501e-06
2.33569e-06
3.20049e-06
1.752e-06
3.45013e-06
9.11469e-07
3.4005e-06
-3.13525e-07
2.92982e-06
-2.08057e-06
1.91406e-06
-4.64501e-06
3.15074e-07
-8.41851e-06
-1.48614e-06
-1.39857e-05
-2.16421e-06
-2.04953e-05
-2.05936e-05
-1.84904e-06
1.0634e-05
-2.17418e-06
1.20032e-05
-1.49621e-06
9.77775e-06
-4.67717e-07
7.4582e-06
6.22404e-07
5.62662e-06
1.6622e-06
4.31894e-06
2.62111e-06
3.42293e-06
3.50089e-06
2.81517e-06
4.30839e-06
2.38846e-06
5.04072e-06
2.04698e-06
5.67656e-06
1.69985e-06
6.17098e-06
1.25758e-06
6.45204e-06
6.30414e-07
6.41778e-06
-2.79266e-07
5.93126e-06
-1.59405e-06
4.8212e-06
-3.53495e-06
2.92432e-06
-6.52164e-06
4.06231e-07
-1.14676e-05
-1.41529e-06
-1.86737e-05
-2.20089e-05
-1.97498e-06
1.2609e-05
-1.3486e-06
1.13768e-05
2.90788e-07
8.13837e-06
1.99303e-06
5.75596e-06
3.51139e-06
4.10827e-06
4.81165e-06
3.01867e-06
5.92125e-06
2.31333e-06
6.88166e-06
1.85477e-06
7.72601e-06
1.5441e-06
8.46886e-06
1.30413e-06
9.1009e-06
1.0678e-06
9.58584e-06
7.72639e-07
9.85807e-06
3.58186e-07
9.81918e-06
-2.40372e-07
9.32969e-06
-1.10456e-06
8.19103e-06
-2.39629e-06
6.13424e-06
-4.46485e-06
3.0387e-06
-8.37203e-06
4.58133e-08
-1.56808e-05
-2.19631e-05
-1.30979e-06
1.39188e-05
9.02754e-07
9.16425e-06
3.64599e-06
5.39513e-06
5.91177e-06
3.49018e-06
7.68218e-06
2.33786e-06
9.06804e-06
1.63281e-06
1.01746e-05
1.20677e-06
1.10854e-05
9.43931e-07
1.18569e-05
7.72627e-07
1.25173e-05
6.43759e-07
1.3067e-05
5.1814e-07
1.34783e-05
3.6126e-07
1.36955e-05
1.41046e-07
1.36312e-05
-1.76091e-07
1.31584e-05
-6.31743e-07
1.20781e-05
-1.31602e-06
1.00599e-05
-2.4466e-06
6.62557e-06
-4.93773e-06
2.19111e-06
-1.12464e-05
-1.9772e-05
1.8433e-06
1.20755e-05
6.22192e-06
4.78563e-06
9.56196e-06
2.05509e-06
1.18574e-05
1.19474e-06
1.3455e-05
7.40319e-07
1.46041e-05
4.8362e-07
1.54681e-05
3.42761e-07
1.61498e-05
2.62261e-07
1.67103e-05
2.12194e-07
1.71792e-05
1.74824e-07
1.75602e-05
1.3712e-07
1.78333e-05
8.82034e-08
1.79558e-05
1.84602e-08
1.78619e-05
-8.20963e-08
1.74552e-05
-2.25115e-07
1.65768e-05
-4.37641e-07
1.49222e-05
-7.91919e-07
1.1727e-05
-1.74262e-06
5.92222e-06
-5.44156e-06
-1.38497e-05
1.20755e-05
1.68611e-05
1.89162e-05
2.01109e-05
2.08512e-05
2.13349e-05
2.16776e-05
2.19399e-05
2.21521e-05
2.23269e-05
2.2464e-05
2.25522e-05
2.25707e-05
2.24886e-05
2.22635e-05
2.18258e-05
2.10339e-05
1.92913e-05
1.38497e-05
)
;

boundaryField
{
    movingWall
    {
        type            calculated;
        value           uniform 0;
    }
    fixedWalls
    {
        type            calculated;
        value           uniform 0;
    }
    frontAndBack
    {
        type            empty;
        value           nonuniform 0 ( );
    }
}


// ************************************************************************* //
