/*--------------------------------*- C++ -*----------------------------------*\
  =========                 |
  \\      /  F ield         | OpenFOAM: The Open Source CFD Toolbox
   \\    /   O peration     | Website:  https://openfoam.org
    \\  /    A nd           | Version:  7
     \\/     M anipulation  |
\*---------------------------------------------------------------------------*/
FoamFile
{
    version     2.0;
    format      ascii;
    class       volScalarField;
    location    "0.3";
    object      p;
}
// * * * * * * * * * * * * * * * * * * * * * * * * * * * * * * * * * * * * * //

dimensions      [0 2 -2 0 0 0 0];

internalField   nonuniform List<scalar> 
400
(
-9.03053e-06
-0.0557044
-0.077232
-0.0596224
-0.0062982
0.0745676
0.174605
0.287459
0.408889
0.536336
0.668254
0.803318
0.939522
1.07313
1.19765
1.30311
1.37652
1.40549
1.38509
1.32279
0.0131545
-0.035158
-0.048456
-0.0292045
0.0213355
0.0973422
0.192053
0.299955
0.417024
0.540519
0.668494
0.799148
0.930055
1.05731
1.17476
1.27355
1.3428
1.37301
1.36172
1.30786
0.0295405
-0.0201754
-0.0283757
-0.00761328
0.0414709
0.114347
0.205305
0.309491
0.423108
0.54335
0.668038
0.795095
0.92189
1.04453
1.1572
1.25197
1.31918
1.35086
1.34512
1.2897
0.044249
-0.0127546
-0.0186118
0.00359866
0.0526157
0.124241
0.213252
0.315219
0.426555
0.544487
0.666778
0.79128
0.915375
1.03534
1.14576
1.23927
1.30674
1.34033
1.33724
1.27367
0.05356
-0.0127463
-0.0170798
0.00700935
0.0571021
0.128856
0.21722
0.31805
0.427951
0.544245
0.664745
0.787373
0.909672
1.02822
1.13804
1.23225
1.30181
1.3384
1.33741
1.26356
0.0543057
-0.0214857
-0.0239901
0.00291751
0.0553626
0.128585
0.217515
0.318206
0.42745
0.542717
0.661958
0.78328
0.90451
1.02265
1.13326
1.22989
1.30345
1.34469
1.34664
1.26251
0.0436415
-0.0407762
-0.0403058
-0.0090768
0.0473021
0.123469
0.214229
0.315789
0.425148
0.539986
0.658477
0.779017
0.899834
1.01848
1.13116
1.23195
1.31164
1.35983
1.36657
1.27336
0.018782
-0.0724228
-0.0669026
-0.0291791
0.033081
0.113819
0.207699
0.311105
0.421301
0.536249
0.654439
0.774644
0.89561
1.01556
1.13149
1.23816
1.32636
1.38446
1.39892
1.29906
-0.0233875
-0.118283
-0.10452
-0.0573353
0.0131623
0.100233
0.198508
0.304655
0.416308
0.531811
0.650052
0.770276
0.891833
1.01375
1.134
1.24824
1.34759
1.4193
1.44561
1.34311
-0.0868056
-0.180343
-0.15374
-0.0931998
-0.0116788
0.0835825
0.187456
0.297102
0.410686
0.527056
0.645587
0.766069
0.888537
1.01293
1.13841
1.26188
1.37527
1.46513
1.50886
1.4102
-0.176884
-0.260716
-0.214859
-0.136013
-0.0402789
0.0650397
0.175552
0.289244
0.405038
0.522422
0.641347
0.762201
0.885763
1.013
1.14443
1.27867
1.40921
1.52266
1.59123
1.50688
-0.301405
-0.361564
-0.287679
-0.184433
-0.0709973
0.0460964
0.163995
0.28198
0.400011
0.518364
0.637632
0.758834
0.883519
1.01375
1.15165
1.298
1.44892
1.59239
1.69549
1.64248
-0.471816
-0.484853
-0.371155
-0.236319
-0.10163
0.0285625
0.154129
0.276257
0.396248
0.515303
0.634696
0.756069
0.88173
1.01487
1.15943
1.31888
1.49336
1.67414
1.82439
1.8303
-0.705061
-0.631808
-0.462798
-0.288429
-0.129328
0.0145347
0.147373
0.27299
0.39432
0.513576
0.632701
0.753903
0.880187
1.01586
1.1668
1.33973
1.54053
1.76645
1.98
2.08915
-1.02564
-0.801863
-0.557917
-0.336146
-0.150589
0.00629242
0.1451
0.272965
0.394655
0.513386
0.631682
0.752199
0.878513
1.01595
1.17234
1.35819
1.58702
1.86559
2.16254
2.44467
-1.46623
-0.991003
-0.64914
-0.373602
-0.161548
0.00601688
0.14842
0.276699
0.397449
0.514749
0.631523
0.750685
0.876182
1.01416
1.17428
1.37115
1.62792
1.9649
2.36839
2.92899
-2.06807
-1.1887
-0.72465
-0.393492
-0.15827
0.0154973
0.157976
0.28431
0.402605
0.517477
0.631964
0.748982
0.872568
1.00934
1.17046
1.37457
1.65617
2.05292
2.58754
3.5824
-2.8997
-1.36787
-0.755438
-0.381967
-0.134907
0.0370025
0.174444
0.295836
0.40993
0.52128
0.632629
0.746539
0.866743
0.999782
1.15743
1.36148
1.65716
2.10192
2.79589
4.47866
-4.09317
-1.45666
-0.677929
-0.311024
-0.080595
0.074946
0.199629
0.311958
0.419594
0.526038
0.633122
0.742556
0.857196
0.982593
1.12948
1.31959
1.60184
2.04947
2.92901
5.75636
-5.6046
-1.35524
-0.468233
-0.179195
0.000641913
0.125372
0.230751
0.330886
0.430507
0.531163
0.633261
0.737255
0.844644
0.959181
1.08887
1.25107
1.4867
1.86799
2.87874
7.33753
)
;

boundaryField
{
    movingWall
    {
        type            zeroGradient;
    }
    fixedWalls
    {
        type            zeroGradient;
    }
    frontAndBack
    {
        type            empty;
    }
}


// ************************************************************************* //
