/*--------------------------------*- C++ -*----------------------------------*\
  =========                 |
  \\      /  F ield         | OpenFOAM: The Open Source CFD Toolbox
   \\    /   O peration     | Website:  https://openfoam.org
    \\  /    A nd           | Version:  7
     \\/     M anipulation  |
\*---------------------------------------------------------------------------*/
FoamFile
{
    version     2.0;
    format      ascii;
    class       surfaceScalarField;
    location    "0.3";
    object      phi;
}
// * * * * * * * * * * * * * * * * * * * * * * * * * * * * * * * * * * * * * //

dimensions      [0 3 -1 0 0 0 0];

internalField   nonuniform List<scalar> 
760
(
2.00474e-09
-1.963e-09
-1.50921e-07
1.52926e-07
-3.68213e-07
2.17292e-07
-5.90136e-07
2.21924e-07
-7.84545e-07
1.94408e-07
-9.39574e-07
1.5503e-07
-1.0555e-06
1.15924e-07
-1.13758e-06
8.20863e-08
-1.19166e-06
5.40788e-08
-1.22155e-06
2.98897e-08
-1.22766e-06
6.10915e-09
-1.20637e-06
-2.12881e-08
-1.1502e-06
-5.6172e-08
-1.04915e-06
-1.01056e-07
-8.94053e-07
-1.55094e-07
-6.82906e-07
-2.11147e-07
-4.3054e-07
-2.52366e-07
-1.78318e-07
-2.52223e-07
9.64823e-12
-1.78328e-07
9.5908e-12
-9.95034e-08
9.75402e-08
-5.00249e-07
5.53671e-07
-1.04899e-06
7.66035e-07
-1.61306e-06
7.85994e-07
-2.11361e-06
6.94955e-07
-2.51822e-06
5.59639e-07
-2.82396e-06
4.21667e-07
-3.04141e-06
2.99529e-07
-3.18355e-06
1.96225e-07
-3.25911e-06
1.05446e-07
-3.26881e-06
1.58101e-08
-3.20394e-06
-8.61548e-08
-3.04706e-06
-2.13056e-07
-2.77578e-06
-3.72334e-07
-2.37137e-06
-5.59502e-07
-1.83369e-06
-7.4883e-07
-1.20214e-06
-8.83919e-07
-5.75476e-07
-8.78884e-07
-1.15533e-07
-6.38271e-07
-1.15524e-07
-2.2701e-07
3.2455e-07
-8.50291e-07
1.17695e-06
-1.66602e-06
1.58177e-06
-2.49579e-06
1.61576e-06
-3.23137e-06
1.43053e-06
-3.82717e-06
1.15544e-06
-4.27821e-06
8.72713e-07
-4.59872e-06
6.20038e-07
-4.80666e-06
4.0416e-07
-4.91415e-06
2.12941e-07
-4.92229e-06
2.39466e-08
-4.81911e-06
-1.89334e-07
-4.58079e-06
-4.51379e-07
-4.17711e-06
-7.76014e-07
-3.58334e-06
-1.15327e-06
-2.80041e-06
-1.53176e-06
-1.88239e-06
-1.80193e-06
-9.62417e-07
-1.79886e-06
-2.56297e-07
-1.34439e-06
-3.7182e-07
-3.50882e-07
6.75431e-07
-1.17736e-06
2.00343e-06
-2.21328e-06
2.61768e-06
-3.24727e-06
2.64975e-06
-4.15509e-06
2.33836e-06
-4.88642e-06
1.88677e-06
-5.43787e-06
1.42416e-06
-5.82787e-06
1.01004e-06
-6.07866e-06
6.54949e-07
-6.20523e-06
3.39507e-07
-6.20933e-06
2.80545e-08
-6.07731e-06
-3.21361e-07
-5.78139e-06
-7.47296e-07
-5.28592e-06
-1.27149e-06
-4.56061e-06
-1.87857e-06
-3.60335e-06
-2.48903e-06
-2.47189e-06
-2.93339e-06
-1.31629e-06
-2.95446e-06
-3.90054e-07
-2.27062e-06
-7.61874e-07
-4.65268e-07
1.1407e-06
-1.47363e-06
3.01179e-06
-2.68856e-06
3.83261e-06
-3.8718e-06
3.83299e-06
-4.8935e-06
3.36006e-06
-5.7068e-06
2.70006e-06
-6.31435e-06
2.03172e-06
-6.74035e-06
1.43604e-06
-7.01142e-06
9.2601e-07
-7.14525e-06
4.73344e-07
-7.14475e-06
2.75498e-08
-6.99576e-06
-4.70355e-07
-6.66833e-06
-1.07472e-06
-6.1226e-06
-1.81722e-06
-5.32177e-06
-2.67941e-06
-4.25546e-06
-3.55534e-06
-2.97461e-06
-4.21424e-06
-1.6325e-06
-4.29656e-06
-5.12137e-07
-3.39099e-06
-1.27401e-06
-5.70535e-07
1.71123e-06
-1.73844e-06
4.1797e-06
-3.09203e-06
5.1862e-06
-4.37123e-06
5.1122e-06
-5.45e-06
4.43882e-06
-6.29285e-06
3.54291e-06
-6.91306e-06
2.65194e-06
-7.34235e-06
1.86532e-06
-7.61198e-06
1.19564e-06
-7.74239e-06
6.03751e-07
-7.73797e-06
2.31255e-08
-7.58514e-06
-6.23184e-07
-7.25316e-06
-1.4067e-06
-6.69874e-06
-2.37164e-06
-5.87727e-06
-3.50087e-06
-4.76494e-06
-4.66767e-06
-3.39585e-06
-5.58334e-06
-1.91406e-06
-5.77836e-06
-6.24825e-07
-4.68022e-06
-1.89884e-06
-6.70073e-07
2.38131e-06
-1.97461e-06
5.48423e-06
-3.42441e-06
6.636e-06
-4.74465e-06
6.43243e-06
-5.82313e-06
5.5173e-06
-6.64356e-06
4.36334e-06
-7.23401e-06
3.24238e-06
-7.63513e-06
2.26644e-06
-7.8829e-06
1.44342e-06
-8.00026e-06
7.21109e-07
-7.99334e-06
1.62055e-08
-7.85004e-06
-7.66486e-07
-7.54012e-06
-1.71662e-06
-7.01782e-06
-2.89394e-06
-6.22988e-06
-4.28881e-06
-5.13457e-06
-5.76298e-06
-3.73962e-06
-6.97829e-06
-2.1667e-06
-7.35127e-06
-7.33459e-07
-6.11347e-06
-2.6323e-06
-7.69254e-07
3.15056e-06
-2.18641e-06
6.90139e-06
-3.68524e-06
8.13483e-06
-4.98727e-06
7.73447e-06
-6.00602e-06
6.53605e-06
-6.75212e-06
5.10944e-06
-7.27178e-06
3.76204e-06
-7.61516e-06
2.60982e-06
-7.82234e-06
1.6506e-06
-7.91812e-06
8.16892e-07
-7.91036e-06
8.44768e-09
-7.78922e-06
-8.8763e-07
-7.52642e-06
-1.97941e-06
-7.07526e-06
-3.3451e-06
-6.37412e-06
-4.98995e-06
-5.36029e-06
-6.77681e-06
-4.00631e-06
-8.33227e-06
-2.39631e-06
-8.96127e-06
-8.45029e-07
-7.66475e-06
-3.47733e-06
-8.7495e-07
4.02551e-06
-2.37801e-06
8.40445e-06
-3.87085e-06
9.62766e-06
-5.08877e-06
8.95239e-06
-5.98535e-06
7.43263e-06
-6.60551e-06
5.7296e-06
-7.01553e-06
4.17206e-06
-7.27427e-06
2.86856e-06
-7.42436e-06
1.80069e-06
-7.49125e-06
8.83782e-07
-7.48414e-06
1.33353e-09
-7.39613e-06
-9.75643e-07
-7.20265e-06
-2.17289e-06
-6.85847e-06
-3.68928e-06
-6.29561e-06
-5.55282e-06
-5.42959e-06
-7.64283e-06
-4.19018e-06
-9.57168e-06
-2.60658e-06
-1.05449e-05
-9.67374e-07
-9.30395e-06
-4.4447e-06
-9.9528e-07
5.02079e-06
-2.55152e-06
9.96069e-06
-3.97165e-06
1.10478e-05
-5.03091e-06
1.00117e-05
-5.73981e-06
8.14152e-06
-6.18375e-06
6.17354e-06
-6.4488e-06
4.43712e-06
-6.59989e-06
3.01965e-06
-6.67942e-06
1.88022e-06
-6.71157e-06
9.15926e-07
-6.70611e-06
-4.11865e-09
-6.65969e-06
-1.02207e-06
-6.55346e-06
-2.27912e-06
-6.34708e-06
-3.89566e-06
-5.97038e-06
-5.92952e-06
-5.31948e-06
-8.29373e-06
-4.27652e-06
-1.06146e-05
-2.7966e-06
-1.20248e-05
-1.10855e-06
-1.0992e-05
-5.55325e-06
-1.13914e-06
6.15994e-06
-2.70412e-06
1.15257e-05
-3.96827e-06
1.23119e-05
-4.7843e-06
1.08277e-05
-5.23816e-06
8.59538e-06
-5.45913e-06
6.39452e-06
-5.54956e-06
4.52754e-06
-5.57546e-06
3.04556e-06
-5.57499e-06
1.87975e-06
-5.56844e-06
9.09369e-07
-5.56506e-06
-7.49848e-09
-5.5654e-06
-1.02173e-06
-5.55854e-06
-2.28597e-06
-5.51345e-06
-3.94075e-06
-5.36427e-06
-6.07871e-06
-4.99428e-06
-8.66372e-06
-4.23787e-06
-1.1371e-05
-2.95739e-06
-1.33053e-05
-1.27582e-06
-1.26736e-05
-6.82907e-06
-1.31475e-06
7.47469e-06
-2.8232e-06
1.30341e-05
-3.82576e-06
1.33145e-05
-4.30416e-06
1.13061e-05
-4.43701e-06
8.72823e-06
-4.39552e-06
6.35302e-06
-4.29031e-06
4.42233e-06
-4.18107e-06
2.93632e-06
-4.09643e-06
1.79511e-06
-4.04971e-06
8.62645e-07
-4.04823e-06
-8.97808e-09
-4.09661e-06
-9.73346e-07
-4.19397e-06
-2.18861e-06
-4.32355e-06
-3.81116e-06
-4.4326e-06
-5.96966e-06
-4.40312e-06
-8.6932e-06
-4.02926e-06
-1.17449e-05
-3.06659e-06
-1.42679e-05
-1.47331e-06
-1.42669e-05
-8.30238e-06
-1.52568e-06
9.00037e-06
-2.87762e-06
1.4386e-05
-3.48534e-06
1.39222e-05
-3.52508e-06
1.13458e-05
-3.2786e-06
8.48175e-06
-2.94803e-06
6.02245e-06
-2.63883e-06
4.11314e-06
-2.39447e-06
2.69195e-06
-2.22811e-06
1.62875e-06
-2.14291e-06
7.77444e-07
-2.14275e-06
-9.13939e-09
-2.23615e-06
-8.79945e-07
-2.43391e-06
-1.99085e-06
-2.73845e-06
-3.50663e-06
-3.12039e-06
-5.58772e-06
-3.4774e-06
-8.33619e-06
-3.58173e-06
-1.16406e-05
-3.07988e-06
-1.47698e-05
-1.69684e-06
-1.56499e-05
-9.99921e-06
-1.76154e-06
1.07619e-05
-2.80271e-06
1.54272e-05
-2.85245e-06
1.3972e-05
-2.35513e-06
1.08485e-05
-1.68923e-06
7.81586e-06
-1.0637e-06
5.39691e-06
-5.59543e-07
3.60899e-06
-1.92604e-07
2.32502e-06
4.50998e-08
1.39105e-06
1.63297e-07
6.59247e-07
1.62846e-07
-8.68897e-09
3.18521e-08
-7.4895e-07
-2.5284e-07
-1.70616e-06
-7.16574e-07
-3.04289e-06
-1.36368e-06
-4.94061e-06
-2.12876e-06
-7.5711e-06
-2.79424e-06
-1.09751e-05
-2.91732e-06
-1.46467e-05
-1.9232e-06
-1.6644e-05
-1.19224e-05
-1.97669e-06
1.27386e-05
-2.47448e-06
1.5925e-05
-1.78132e-06
1.32788e-05
-6.705e-07
9.73768e-06
4.20371e-07
6.72498e-06
1.31612e-06
4.50117e-06
1.98384e-06
2.94127e-06
2.44609e-06
1.86276e-06
2.73605e-06
1.10109e-06
2.87759e-06
5.17701e-07
2.87705e-06
-8.13967e-09
2.72005e-06
-5.91954e-07
2.37187e-06
-1.35798e-06
1.78301e-06
-2.45404e-06
9.07653e-07
-4.06525e-06
-2.48432e-07
-6.41502e-06
-1.52417e-06
-9.69936e-06
-2.44188e-06
-1.3729e-05
-2.08824e-06
-1.69976e-05
-1.40107e-05
-2.04451e-06
1.47831e-05
-1.66811e-06
1.55486e-05
-5.69875e-08
1.16677e-05
1.68673e-06
7.99396e-06
3.1511e-06
5.26061e-06
4.25074e-06
3.40153e-06
5.02409e-06
2.16791e-06
5.5387e-06
1.34816e-06
5.85313e-06
7.8666e-07
6.00434e-06
3.66494e-07
6.00377e-06
-7.57133e-09
5.83586e-06
-4.24046e-07
5.45701e-06
-9.79131e-07
4.79636e-06
-1.79339e-06
3.76475e-06
-3.03364e-06
2.29032e-06
-4.94059e-06
4.21977e-07
-7.83102e-06
-1.42772e-06
-1.18793e-05
-2.04461e-06
-1.63808e-05
-1.60553e-05
-1.6683e-06
1.64514e-05
-8.0561e-10
1.38811e-05
2.6209e-06
9.04598e-06
4.90335e-06
5.71152e-06
6.60532e-06
3.55864e-06
7.79148e-06
2.21537e-06
8.58454e-06
1.37485e-06
9.09399e-06
8.38709e-07
9.39795e-06
4.82694e-07
9.54201e-06
2.2244e-07
9.54105e-06
-6.61428e-09
9.37979e-06
-2.62789e-07
9.01068e-06
-6.10019e-07
8.34951e-06
-1.13222e-06
7.27204e-06
-1.95617e-06
5.62506e-06
-3.29362e-06
3.29488e-06
-5.50083e-06
4.82093e-07
-9.06653e-06
-1.48675e-06
-1.44119e-05
-1.7542e-05
-2.05577e-07
1.6657e-05
3.17389e-06
1.05016e-05
6.64394e-06
5.57593e-06
9.17386e-06
3.1816e-06
1.08671e-05
1.86537e-06
1.19685e-05
1.11397e-06
1.26713e-05
6.72056e-07
1.31082e-05
4.01792e-07
1.33631e-05
2.27828e-07
1.3482e-05
1.03553e-07
1.34802e-05
-4.77452e-09
1.33442e-05
-1.26852e-07
1.30297e-05
-2.95459e-07
1.24528e-05
-5.55341e-07
1.14762e-05
-9.79555e-07
9.88905e-06
-1.7065e-06
7.40299e-06
-3.01477e-06
3.84276e-06
-5.50629e-06
1.85806e-07
-1.0755e-05
-1.73562e-05
3.55311e-06
1.31039e-05
8.86153e-06
5.1932e-06
1.24507e-05
1.98672e-06
1.46423e-05
9.90016e-07
1.59658e-05
5.41901e-07
1.67716e-05
3.0814e-07
1.72638e-05
1.79832e-07
1.75606e-05
1.04993e-07
1.773e-05
5.84376e-08
1.78076e-05
2.59915e-08
1.78049e-05
-2.10966e-09
1.77123e-05
-3.42722e-08
1.74967e-05
-7.9835e-08
1.70934e-05
-1.51978e-07
1.63876e-05
-2.73837e-07
1.51754e-05
-4.94252e-07
1.3086e-05
-9.25382e-07
9.52024e-06
-1.94053e-06
4.03563e-06
-5.27036e-06
-1.33206e-05
1.31039e-05
1.82971e-05
2.02838e-05
2.12738e-05
2.18157e-05
2.21239e-05
2.23037e-05
2.24087e-05
2.24671e-05
2.24931e-05
2.2491e-05
2.24568e-05
2.23769e-05
2.22249e-05
2.19511e-05
2.14569e-05
2.05315e-05
1.85909e-05
1.33206e-05
)
;

boundaryField
{
    movingWall
    {
        type            calculated;
        value           uniform 0;
    }
    fixedWalls
    {
        type            calculated;
        value           uniform 0;
    }
    frontAndBack
    {
        type            empty;
        value           nonuniform 0();
    }
}


// ************************************************************************* //
