/*--------------------------------*- C++ -*----------------------------------*\
  =========                 |
  \\      /  F ield         | OpenFOAM: The Open Source CFD Toolbox
   \\    /   O peration     | Website:  https://openfoam.org
    \\  /    A nd           | Version:  7
     \\/     M anipulation  |
\*---------------------------------------------------------------------------*/
FoamFile
{
    version     2.0;
    format      ascii;
    class       volVectorField;
    location    "0.3";
    object      U;
}
// * * * * * * * * * * * * * * * * * * * * * * * * * * * * * * * * * * * * * //

dimensions      [0 1 -1 0 0 0 0];

internalField   nonuniform List<vector> 
400
(
(0.000717781 -0.000245789 0)
(-0.00204481 0.0010878 0)
(-0.0101176 0.00160607 0)
(-0.0192783 0.00163251 0)
(-0.0277867 0.00141341 0)
(-0.0348274 0.00111279 0)
(-0.040225 0.000823636 0)
(-0.0441391 0.000580864 0)
(-0.0468219 0.000386019 0)
(-0.0484836 0.000222145 0)
(-0.0492171 6.23039e-05 0)
(-0.0489601 -0.000125246 0)
(-0.0474833 -0.000371973 0)
(-0.0444168 -0.000700377 0)
(-0.0393371 -0.00110834 0)
(-0.031955 -0.00154454 0)
(-0.0224566 -0.00187673 0)
(-0.0118982 -0.0018874 0)
(-0.00250101 -0.00128687 0)
(0.000774802 0.000253469 0)
(-0.000278092 0.000451786 0)
(-0.00963321 0.00603722 0)
(-0.0303251 0.0085417 0)
(-0.0535628 0.00876538 0)
(-0.0753368 0.00771881 0)
(-0.093583 0.00618556 0)
(-0.107737 0.0046428 0)
(-0.11808 0.00329442 0)
(-0.125164 0.00216845 0)
(-0.129471 0.0011893 0)
(-0.131212 0.00022494 0)
(-0.130232 -0.000880895 0)
(-0.125986 -0.00227685 0)
(-0.117624 -0.00405572 0)
(-0.104218 -0.0061759 0)
(-0.0852195 -0.00834941 0)
(-0.061239 -0.00992025 0)
(-0.0348699 -0.00987051 0)
(-0.0111419 -0.00701442 0)
(-0.000362704 -0.00059388 0)
(-0.00209188 0.00367198 0)
(-0.0182247 0.0162095 0)
(-0.0494849 0.0221807 0)
(-0.0837808 0.022752 0)
(-0.115769 0.020154 0)
(-0.142598 0.016267 0)
(-0.163454 0.0122793 0)
(-0.178708 0.00872906 0)
(-0.18912 0.00570989 0)
(-0.195359 0.00304565 0)
(-0.197722 0.000412917 0)
(-0.195996 -0.00257129 0)
(-0.189436 -0.00626285 0)
(-0.176882 -0.0108663 0)
(-0.157087 -0.0162427 0)
(-0.129339 -0.0216499 0)
(-0.0944938 -0.0254893 0)
(-0.056051 -0.0253502 0)
(-0.0206357 -0.0186143 0)
(-0.00235525 -0.00427079 0)
(-0.00401852 0.009479 0)
(-0.0266151 0.0308611 0)
(-0.0669972 0.0409857 0)
(-0.110033 0.0417494 0)
(-0.149643 0.0369508 0)
(-0.182634 0.029859 0)
(-0.208169 0.0225629 0)
(-0.226771 0.0160269 0)
(-0.239389 0.0104271 0)
(-0.246847 0.00545621 0)
(-0.249517 0.000543283 0)
(-0.247164 -0.0049856 0)
(-0.238927 -0.0117503 0)
(-0.223449 -0.0200975 0)
(-0.19924 -0.0297688 0)
(-0.16538 -0.0394597 0)
(-0.122692 -0.0464057 0)
(-0.0749888 -0.0464518 0)
(-0.0297195 -0.0351271 0)
(-0.00442831 -0.0107739 0)
(-0.00585284 0.0176822 0)
(-0.0344129 0.049343 0)
(-0.0826387 0.063732 0)
(-0.132386 0.0642256 0)
(-0.17725 0.056562 0)
(-0.214104 0.0455921 0)
(-0.242336 0.0343884 0)
(-0.262727 0.0243635 0)
(-0.276434 0.0157632 0)
(-0.284424 0.00811948 0)
(-0.287144 0.000578012 0)
(-0.284374 -0.0078641 0)
(-0.275201 -0.018128 0)
(-0.258142 -0.0307361 0)
(-0.231494 -0.0453343 0)
(-0.194022 -0.0600509 0)
(-0.146206 -0.070882 0)
(-0.0916473 -0.0717088 0)
(-0.0380712 -0.0557493 0)
(-0.00638518 -0.0198436 0)
(-0.00759253 0.0280751 0)
(-0.0415916 0.0712188 0)
(-0.0963872 0.0896206 0)
(-0.150878 0.0891142 0)
(-0.198701 0.077845 0)
(-0.237172 0.0624083 0)
(-0.266157 0.0468758 0)
(-0.286807 0.0330728 0)
(-0.300517 0.0212723 0)
(-0.30839 0.0108101 0)
(-0.310954 0.000520978 0)
(-0.308029 -0.0109509 0)
(-0.298707 -0.024858 0)
(-0.281435 -0.041945 0)
(-0.254303 -0.06183 0)
(-0.215652 -0.0821507 0)
(-0.165313 -0.0976873 0)
(-0.106181 -0.100184 0)
(-0.0457746 -0.0799715 0)
(-0.00825963 -0.0312463 0)
(-0.00932956 0.0405009 0)
(-0.0483022 0.0960592 0)
(-0.108314 0.117871 0)
(-0.165499 0.115384 0)
(-0.213939 0.0996998 0)
(-0.251781 0.0792928 0)
(-0.279608 0.0591848 0)
(-0.299037 0.0415248 0)
(-0.311715 0.0265407 0)
(-0.318872 0.0133301 0)
(-0.321109 0.000397249 0)
(-0.318314 -0.0139795 0)
(-0.309628 -0.0314082 0)
(-0.293487 -0.0529129 0)
(-0.267791 -0.0781921 0)
(-0.23037 -0.104543 0)
(-0.180136 -0.125646 0)
(-0.118785 -0.130983 0)
(-0.0530888 -0.107324 0)
(-0.0101873 -0.0448405 0)
(-0.0112177 0.0548929 0)
(-0.0547973 0.123403 0)
(-0.118504 0.147606 0)
(-0.176124 0.141911 0)
(-0.222706 0.120969 0)
(-0.257642 0.095211 0)
(-0.282437 0.0704814 0)
(-0.299237 0.0491079 0)
(-0.309925 0.031176 0)
(-0.315824 0.015499 0)
(-0.317595 0.000240449 0)
(-0.315203 -0.0166855 0)
(-0.30789 -0.0372563 0)
(-0.294148 -0.0628376 0)
(-0.271741 -0.093347 0)
(-0.237958 -0.125962 0)
(-0.190574 -0.153484 0)
(-0.129592 -0.163103 0)
(-0.0603463 -0.137311 0)
(-0.012364 -0.0606111 0)
(-0.0134651 0.0713085 0)
(-0.0613868 0.152752 0)
(-0.126974 0.177816 0)
(-0.182441 0.167451 0)
(-0.224493 0.140434 0)
(-0.254201 0.109123 0)
(-0.274156 0.0799604 0)
(-0.287027 0.0552518 0)
(-0.294873 0.0348222 0)
(-0.299048 0.0171574 0)
(-0.300234 8.40394e-05 0)
(-0.298481 -0.0188276 0)
(-0.293184 -0.0419219 0)
(-0.282977 -0.0709607 0)
(-0.265592 -0.106238 0)
(-0.237834 -0.145095 0)
(-0.196214 -0.179804 0)
(-0.138556 -0.195386 0)
(-0.0678863 -0.16939 0)
(-0.0150324 -0.0786947 0)
(-0.0163373 0.0899579 0)
(-0.0683969 0.183532 0)
(-0.133571 0.207305 0)
(-0.183838 0.190607 0)
(-0.218454 0.156813 0)
(-0.240602 0.120002 0)
(-0.254027 0.0868716 0)
(-0.261832 0.0594507 0)
(-0.266131 0.0371753 0)
(-0.268207 0.018172 0)
(-0.268713 -4.5696e-05 0)
(-0.267777 -0.020207 0)
(-0.264996 -0.0449957 0)
(-0.259259 -0.0766044 0)
(-0.24843 -0.11586 0)
(-0.228998 -0.160598 0)
(-0.196224 -0.203054 0)
(-0.145333 -0.226445 0)
(-0.0759898 -0.202895 0)
(-0.0184758 -0.0993912 0)
(-0.0201566 0.111228 0)
(-0.0761057 0.215004 0)
(-0.137808 0.234597 0)
(-0.179251 0.209792 0)
(-0.20331 0.168766 0)
(-0.215632 0.126865 0)
(-0.221048 0.0905531 0)
(-0.22289 0.0612904 0)
(-0.223135 0.0380011 0)
(-0.222864 0.0184424 0)
(-0.222621 -0.000133949 0)
(-0.222603 -0.0206838 0)
(-0.222653 -0.0461694 0)
(-0.222044 -0.0792126 0)
(-0.218997 -0.1213 0)
(-0.209982 -0.171121 0)
(-0.189226 -0.221507 0)
(-0.149109 -0.25457 0)
(-0.0847829 -0.236924 0)
(-0.0230034 -0.123163 0)
(-0.0252739 0.13569 0)
(-0.0846102 0.246121 0)
(-0.13863 0.257829 0)
(-0.166952 0.223208 0)
(-0.177217 0.174939 0)
(-0.177672 0.128825 0)
(-0.173951 0.0904813 0)
(-0.169273 0.0604849 0)
(-0.16522 0.0371568 0)
(-0.162509 0.0179113 0)
(-0.161493 -0.000178646 0)
(-0.162404 -0.0201904 0)
(-0.165376 -0.0452657 0)
(-0.170195 -0.0784016 0)
(-0.175708 -0.121816 0)
(-0.178803 -0.175379 0)
(-0.173146 -0.233282 0)
(-0.148372 -0.277633 0)
(-0.0940624 -0.270157 0)
(-0.0288935 -0.150604 0)
(-0.0319626 0.164067 0)
(-0.0935459 0.275304 0)
(-0.134026 0.274628 0)
(-0.144269 0.228873 0)
(-0.137628 0.174048 0)
(-0.124656 0.125191 0)
(-0.111215 0.0863412 0)
(-0.0999237 0.0569222 0)
(-0.0916636 0.0346189 0)
(-0.0866172 0.0165776 0)
(-0.0848568 -0.000188609 0)
(-0.086621 -0.0187433 0)
(-0.0923509 -0.0422683 0)
(-0.10246 -0.0740192 0)
(-0.116702 -0.116922 0)
(-0.132933 -0.17227 0)
(-0.145041 -0.236414 0)
(-0.140577 -0.293011 0)
(-0.10297 -0.300622 0)
(-0.0362382 -0.182345 0)
(-0.0401255 0.197061 0)
(-0.101518 0.300109 0)
(-0.12044 0.282027 0)
(-0.10724 0.224729 0)
(-0.081171 0.165047 0)
(-0.0540731 0.115593 0)
(-0.0311179 0.0781158 0)
(-0.0137189 0.0507165 0)
(-0.0017447 0.0305098 0)
(0.00530416 0.0145101 0)
(0.00770439 -0.000178675 0)
(0.00524819 -0.0164476 0)
(-0.0028075 -0.037347 0)
(-0.0175663 -0.0662076 0)
(-0.0399282 -0.106517 0)
(-0.0693127 -0.161059 0)
(-0.100919 -0.229039 0)
(-0.121683 -0.297595 0)
(-0.109403 -0.325384 0)
(-0.0445714 -0.218789 0)
(-0.0485649 0.234901 0)
(-0.104983 0.316779 0)
(-0.0919167 0.276483 0)
(-0.0502381 0.208917 0)
(-0.0035903 0.147394 0)
(0.0369551 0.100174 0)
(0.0681562 0.0661881 0)
(0.0904317 0.0422583 0)
(0.105175 0.0251223 0)
(0.113646 0.0118589 0)
(0.116496 -0.000163155 0)
(0.113579 -0.0134969 0)
(0.103892 -0.0308732 0)
(0.0856613 -0.0554592 0)
(0.0567172 -0.0910182 0)
(0.0155572 -0.141628 0)
(-0.0356011 -0.209719 0)
(-0.0855482 -0.287941 0)
(-0.108972 -0.340196 0)
(-0.0520417 -0.259568 0)
(-0.0532952 0.276516 0)
(-0.0961728 0.319695 0)
(-0.0389506 0.254078 0)
(0.0343206 0.180225 0)
(0.100143 0.121409 0)
(0.151462 0.079783 0)
(0.188321 0.0514305 0)
(0.213441 0.0322462 0)
(0.229552 0.0189263 0)
(0.238625 0.00885863 0)
(0.241649 -0.00014942 0)
(0.238554 -0.0101623 0)
(0.228161 -0.0234146 0)
(0.208158 -0.0426455 0)
(0.175187 -0.0714838 0)
(0.125414 -0.114771 0)
(0.0573041 -0.177903 0)
(-0.0232036 -0.260647 0)
(-0.0932769 -0.33921 0)
(-0.0536843 -0.302689 0)
(-0.0438335 0.317925 0)
(-0.0595645 0.300895 0)
(0.0527756 0.211179 0)
(0.155973 0.138841 0)
(0.235433 0.0887234 0)
(0.292238 0.0561646 0)
(0.330701 0.035252 0)
(0.355859 0.0216783 0)
(0.371544 0.0125498 0)
(0.380216 0.0058155 0)
(0.383072 -0.000134682 0)
(0.380111 -0.006772 0)
(0.370107 -0.0157043 0)
(0.350469 -0.0290037 0)
(0.317025 -0.0496903 0)
(0.263876 -0.0825032 0)
(0.185187 -0.134607 0)
(0.0778364 -0.213137 0)
(-0.0472465 -0.314816 0)
(-0.0380076 -0.342873 0)
(0.00502952 0.346132 0)
(0.033715 0.250757 0)
(0.203242 0.147483 0)
(0.32546 0.0882196 0)
(0.407168 0.0530794 0)
(0.461186 0.0322295 0)
(0.495836 0.0196517 0)
(0.517651 0.011836 0)
(0.530895 0.00674951 0)
(0.538085 0.00308822 0)
(0.54041 -0.00011012 0)
(0.537909 -0.00369963 0)
(0.529465 -0.00862092 0)
(0.512613 -0.0161411 0)
(0.483064 -0.0282706 0)
(0.433898 -0.0486283 0)
(0.35579 -0.0839734 0)
(0.233946 -0.146405 0)
(0.0550403 -0.25844 0)
(0.019949 -0.365105 0)
(0.153137 0.318154 0)
(0.23567 0.16432 0)
(0.437195 0.0743603 0)
(0.551983 0.0389708 0)
(0.617863 0.0217365 0)
(0.658299 0.0125271 0)
(0.682968 0.00736944 0)
(0.697948 0.00432518 0)
(0.706816 0.00241811 0)
(0.711541 0.00108318 0)
(0.713024 -7.18705e-05 0)
(0.711299 -0.0013855 0)
(0.70555 -0.00323322 0)
(0.69392 -0.00614272 0)
(0.673006 -0.0110239 0)
(0.636782 -0.019739 0)
(0.575418 -0.0364424 0)
(0.464801 -0.0724664 0)
(0.259015 -0.166354 0)
(0.174995 -0.3256 0)
(0.541589 0.141273 0)
(0.63704 0.0564645 0)
(0.777423 0.0191076 0)
(0.836556 0.00832963 0)
(0.864385 0.00416256 0)
(0.880236 0.00221139 0)
(0.889423 0.00122607 0)
(0.89479 0.000687717 0)
(0.897879 0.000370097 0)
(0.899485 0.000157425 0)
(0.899957 -2.49814e-05 0)
(0.899298 -0.000239474 0)
(0.897175 -0.000556025 0)
(0.892835 -0.0010781 0)
(0.88485 -0.00200234 0)
(0.870507 -0.00378765 0)
(0.844751 -0.00762609 0)
(0.789128 -0.0179978 0)
(0.647876 -0.0553514 0)
(0.553077 -0.140822 0)
)
;

boundaryField
{
    movingWall
    {
        type            fixedValue;
        value           uniform (1 0 0);
    }
    fixedWalls
    {
        type            noSlip;
    }
    frontAndBack
    {
        type            empty;
    }
}


// ************************************************************************* //
