/*--------------------------------*- C++ -*----------------------------------*\
  =========                 |
  \\      /  F ield         | OpenFOAM: The Open Source CFD Toolbox
   \\    /   O peration     | Website:  https://openfoam.org
    \\  /    A nd           | Version:  7
     \\/     M anipulation  |
\*---------------------------------------------------------------------------*/
FoamFile
{
    version     2.0;
    format      ascii;
    class       volScalarField;
    location    "0.2";
    object      p;
}
// * * * * * * * * * * * * * * * * * * * * * * * * * * * * * * * * * * * * * //

dimensions      [0 2 -2 0 0 0 0];

internalField   nonuniform List<scalar> 
400
(
-5.33998e-09
-2.15075e-06
-2.39193e-06
-8.40645e-07
2.35403e-06
7.07173e-06
1.31329e-05
2.03e-05
2.82949e-05
3.68105e-05
4.55197e-05
5.40865e-05
6.21769e-05
6.94708e-05
7.56728e-05
8.05257e-05
8.38314e-05
8.54555e-05
8.52442e-05
8.30888e-05
1.51449e-06
-1.15869e-06
-1.54561e-06
-4.87818e-08
3.04794e-06
7.6328e-06
1.35481e-05
2.05672e-05
2.8418e-05
3.67963e-05
4.53758e-05
5.38195e-05
6.1792e-05
6.8972e-05
7.50646e-05
7.98181e-05
8.30509e-05
8.46339e-05
8.42762e-05
8.15781e-05
-5.0311e-06
-8.44898e-06
-9.04561e-06
-7.36282e-06
-3.78084e-06
1.5603e-06
8.47523e-06
1.66992e-05
2.59146e-05
3.57656e-05
4.58689e-05
5.58258e-05
6.52381e-05
7.3722e-05
8.09223e-05
8.65335e-05
9.0332e-05
9.21504e-05
9.1597e-05
8.8134e-05
-1.91411e-05
-2.35064e-05
-2.42461e-05
-2.20566e-05
-1.74255e-05
-1.05305e-05
-1.60458e-06
9.01881e-06
2.09379e-05
3.36999e-05
4.68139e-05
5.97647e-05
7.20344e-05
8.31199e-05
9.25526e-05
9.99261e-05
0.00010494
0.000107369
0.000106703
0.000102253
-4.29487e-05
-4.86956e-05
-4.95604e-05
-4.64703e-05
-4.00756e-05
-3.06103e-05
-1.8379e-05
-3.82003e-06
1.25347e-05
3.00805e-05
4.81556e-05
6.6057e-05
8.30722e-05
9.8502e-05
0.000111689
0.000122057
0.000129176
0.00013272
0.000131999
0.000126093
-7.99984e-05
-8.77242e-05
-8.87017e-05
-8.42004e-05
-7.51098e-05
-6.17418e-05
-4.44984e-05
-2.39635e-05
-8.53276e-07
2.40085e-05
4.9709e-05
7.52628e-05
9.96569e-05
0.000121885
0.000140988
0.000156117
0.000166623
0.000172021
0.000171338
0.000163323
-0.000135651
-0.000146154
-0.000147234
-0.000140655
-0.000127645
-0.000108614
-8.40829e-05
-5.48223e-05
-2.17913e-05
1.38872e-05
5.09478e-05
8.79953e-05
0.000123562
0.000156167
0.000184376
0.000206898
0.000222727
0.000231108
0.000230653
0.00021963
-0.000217746
-0.000232102
-0.000233293
-0.000223788
-0.000205279
-0.000178287
-0.000143458
-0.000101774
-5.44928e-05
-3.12248e-06
5.05956e-05
0.000104694
0.000157015
0.000205353
0.000247517
0.000281491
0.000305668
0.000318838
0.000318979
0.000303685
-0.00033752
-0.00035719
-0.000358569
-0.000345123
-0.000319174
-0.000281333
-0.000232333
-0.000173357
-0.000105981
-3.21737e-05
4.57141e-05
0.000124966
0.000202373
0.00027461
0.000338276
0.000390142
0.000427552
0.000448489
0.000449946
0.000428569
-0.000510771
-0.000537753
-0.000539589
-0.000521155
-0.0004856
-0.000433545
-0.00036568
-0.000283272
-0.000188148
-8.27527e-05
2.98344e-05
0.000146057
0.000261086
0.000369871
0.000467049
0.000547302
0.000606069
0.000639833
0.000643986
0.000613848
-0.000759296
-0.000796348
-0.000799374
-0.00077524
-0.00072815
-0.000658538
-0.000566733
-0.000453761
-0.000321406
-0.000172437
-1.07398e-05
0.000159477
0.000330966
0.000496131
0.000646356
0.000772626
0.000866757
0.000922254
0.00093174
0.000888653
-0.00111243
-0.00116341
-0.00116935
-0.00113995
-0.00108071
-0.000991489
-0.000871628
-0.000721192
-0.000541185
-0.000334049
-0.000103775
0.000143619
0.000399589
0.000652472
0.000888241
0.00109116
0.00124592
0.00133967
0.00135966
0.00129655
-0.00160844
-0.00167886
-0.00169136
-0.00165973
-0.00159113
-0.00148411
-0.00133594
-0.00114446
-0.000908546
-0.000628715
-0.000307849
4.81931e-05
0.00042955
0.000819439
0.0011956
0.00153029
0.00179364
0.00195853
0.00199996
0.00190347
-0.00229521
-0.00239305
-0.00241922
-0.00239352
-0.00232533
-0.00221087
-0.00204362
-0.00181706
-0.00152533
-0.00116406
-0.000731963
-0.000232727
0.00032692
0.000927083
0.00153503
0.0021025
0.00256966
0.0028759
0.0029652
0.00280844
-0.00322976
-0.00336606
-0.00341806
-0.00341518
-0.00336965
-0.0032739
-0.00311545
-0.00288095
-0.00255645
-0.00212814
-0.0015855
-0.000921028
-0.000130887
0.000776077
0.00175845
0.0027427
0.00361549
0.00423397
0.00444865
0.00417596
-0.00448639
-0.00468168
-0.00477187
-0.00481144
-0.00482389
-0.00479577
-0.00470452
-0.00452653
-0.00423703
-0.00380921
-0.00321266
-0.00241791
-0.00140504
-0.000133297
0.00139497
0.00311453
0.00484281
0.00624003
0.00685159
0.00640778
-0.00606347
-0.00632888
-0.00652457
-0.00669142
-0.00684818
-0.00697235
-0.00703828
-0.00702171
-0.00689555
-0.00662634
-0.00617009
-0.00546699
-0.00443185
-0.0029686
-0.00086631
0.00185675
0.00503997
0.00808062
0.0098945
0.0098717
-0.0090903
-0.00902485
-0.00885074
-0.00890064
-0.00913433
-0.00946967
-0.00982986
-0.0101564
-0.0104097
-0.010565
-0.0106008
-0.0104719
-0.010055
-0.00912306
-0.00734857
-0.00445209
0.000150793
0.00603379
0.0113513
0.0144015
-0.00802144
-0.00962422
-0.0110648
-0.0123173
-0.0133608
-0.0142124
-0.0149065
-0.0154915
-0.0160273
-0.0165795
-0.0172054
-0.0179196
-0.0186627
-0.0192609
-0.0185485
-0.0147961
-0.0065713
0.00623099
0.0218922
0.0377561
-0.0390289
-0.0200504
-0.0143541
-0.0133481
-0.0133842
-0.0136707
-0.0141465
-0.0148139
-0.0156372
-0.0165681
-0.0175406
-0.0183861
-0.0186526
-0.0174397
-0.013071
-0.00247331
0.0174326
0.0482538
0.086355
0.126511
)
;

boundaryField
{
    movingWall
    {
        type            zeroGradient;
    }
    fixedWalls
    {
        type            zeroGradient;
    }
    frontAndBack
    {
        type            empty;
    }
}


// ************************************************************************* //
