/*--------------------------------*- C++ -*----------------------------------*\
  =========                 |
  \\      /  F ield         | OpenFOAM: The Open Source CFD Toolbox
   \\    /   O peration     | Website:  https://openfoam.org
    \\  /    A nd           | Version:  7
     \\/     M anipulation  |
\*---------------------------------------------------------------------------*/
FoamFile
{
    version     2.0;
    format      ascii;
    class       surfaceScalarField;
    location    "0.2";
    object      phi;
}
// * * * * * * * * * * * * * * * * * * * * * * * * * * * * * * * * * * * * * //

dimensions      [0 3 -1 0 0 0 0];

internalField   nonuniform List<scalar> 
760
(
-2.44487e-09
2.44546e-09
-8.13375e-09
5.68883e-09
-1.50755e-08
6.94167e-09
-2.20712e-08
6.99562e-09
-2.85327e-08
6.46142e-09
-3.415e-08
5.61733e-09
-3.87241e-08
4.57412e-09
-4.21097e-08
3.38553e-09
-4.42012e-08
2.0916e-09
-4.49326e-08
7.3132e-10
-4.42778e-08
-6.54791e-10
-4.22529e-08
-2.02497e-09
-3.89155e-08
-3.33744e-09
-3.43648e-08
-4.55076e-09
-2.87434e-08
-5.62156e-09
-2.22515e-08
-6.4919e-09
-1.52054e-08
-7.04618e-09
-8.20474e-09
-7.00066e-09
-2.46566e-09
-5.7391e-09
-2.46569e-09
-4.42898e-09
6.87443e-09
-1.3367e-08
1.46268e-08
-2.38714e-08
1.7446e-08
-3.43558e-08
1.74801e-08
-4.4022e-08
1.61277e-08
-5.2426e-08
1.40214e-08
-5.92716e-08
1.14198e-08
-6.43397e-08
8.45379e-09
-6.74716e-08
5.22354e-09
-6.85673e-08
1.8271e-09
-6.75879e-08
-1.63419e-09
-6.45572e-08
-5.05563e-09
-5.95621e-08
-8.33256e-09
-5.2752e-08
-1.13609e-08
-4.43415e-08
-1.4032e-08
-3.4629e-08
-1.62044e-08
-2.40677e-08
-1.76073e-08
-1.34738e-08
-1.75945e-08
-4.4595e-09
-1.47534e-08
-6.92519e-09
-5.44451e-09
1.23189e-08
-1.65035e-08
2.56856e-08
-2.94803e-08
3.04227e-08
-4.24044e-08
3.04041e-08
-5.43079e-08
2.80311e-08
-6.46566e-08
2.43701e-08
-7.30924e-08
1.98556e-08
-7.93481e-08
1.47095e-08
-8.32276e-08
9.10302e-09
-8.46058e-08
3.2052e-09
-8.34308e-08
-2.80926e-09
-7.97283e-08
-8.75816e-09
-7.36007e-08
-1.44603e-08
-6.52273e-08
-1.97343e-08
-5.4868e-08
-2.43913e-08
-4.28842e-08
-2.81883e-08
-2.98261e-08
-3.06655e-08
-1.66922e-08
-3.07284e-08
-5.4988e-09
-2.59469e-08
-1.2424e-08
-6.94644e-09
1.92652e-08
-2.10649e-08
3.9804e-08
-3.76296e-08
4.69873e-08
-5.41272e-08
4.69016e-08
-6.93292e-08
4.3233e-08
-8.25598e-08
3.76007e-08
-9.33645e-08
3.06603e-08
-1.01401e-07
2.27459e-08
-1.06415e-07
1.41171e-08
-1.08241e-07
5.0308e-09
-1.06803e-07
-4.24648e-09
-1.02128e-07
-1.34335e-08
-9.43371e-08
-2.22511e-08
-8.36536e-08
-3.04177e-08
-7.04051e-08
-3.76398e-08
-5.50521e-08
-4.35412e-08
-3.83005e-08
-4.74172e-08
-2.14359e-08
-4.75931e-08
-7.05707e-09
-4.03258e-08
-1.94812e-08
-9.26384e-09
2.8529e-08
-2.80322e-08
5.85723e-08
-5.00301e-08
6.89851e-08
-7.19402e-08
6.88116e-08
-9.21478e-08
6.34405e-08
-1.09764e-07
5.52173e-08
-1.24189e-07
4.50845e-08
-1.34963e-07
3.352e-08
-1.41741e-07
2.08952e-08
-1.44291e-07
7.58038e-09
-1.42497e-07
-6.03986e-09
-1.36379e-07
-1.95515e-08
-1.26085e-07
-3.25454e-08
-1.11899e-07
-4.46035e-08
-9.42511e-08
-5.52879e-08
-7.37533e-08
-6.4039e-08
-5.13516e-08
-6.98189e-08
-2.87702e-08
-7.01745e-08
-9.4908e-09
-5.96052e-08
-2.89721e-08
-1.26673e-08
4.11962e-08
-3.82216e-08
8.41266e-08
-6.81311e-08
9.88944e-08
-9.79233e-08
9.86039e-08
-1.25434e-07
9.09508e-08
-1.49471e-07
7.92545e-08
-1.69221e-07
6.48351e-08
-1.84057e-07
4.83556e-08
-1.93493e-07
3.03314e-08
-1.97193e-07
1.12796e-08
-1.9497e-07
-8.26225e-09
-1.86823e-07
-2.76983e-08
-1.72927e-07
-4.64421e-08
-1.53646e-07
-6.38841e-08
-1.29553e-07
-7.93808e-08
-1.01482e-07
-9.21103e-08
-7.07344e-08
-1.00567e-07
-3.96869e-08
-1.01222e-07
-1.31289e-08
-8.61632e-08
-4.21009e-08
-1.75299e-08
5.8726e-08
-5.27333e-08
1.1933e-07
-9.38749e-08
1.40036e-07
-1.34865e-07
1.39594e-07
-1.72777e-07
1.28863e-07
-2.06001e-07
1.12479e-07
-2.33428e-07
9.22616e-08
-2.54183e-07
6.9111e-08
-2.67576e-07
4.37243e-08
-2.73104e-07
1.68075e-08
-2.7046e-07
-1.09063e-08
-2.59584e-07
-3.85742e-08
-2.40666e-07
-6.53606e-08
-2.14164e-07
-9.03855e-08
-1.80841e-07
-1.12704e-07
-1.41844e-07
-1.31107e-07
-9.89954e-08
-1.43415e-07
-5.56324e-08
-1.44585e-07
-1.84596e-08
-1.23336e-07
-6.05604e-08
-2.43655e-08
8.30915e-08
-7.30755e-08
1.6804e-07
-1.2992e-07
1.96881e-07
-1.86583e-07
1.96256e-07
-2.39105e-07
1.81385e-07
-2.85314e-07
1.58688e-07
-3.23694e-07
1.30641e-07
-3.53023e-07
9.84406e-08
-3.72307e-07
6.30079e-08
-3.80783e-07
2.52838e-08
-3.77934e-07
-1.37561e-08
-3.63556e-07
-5.29517e-08
-3.37817e-07
-9.11003e-08
-3.0126e-07
-1.26942e-07
-2.54881e-07
-1.59083e-07
-2.0026e-07
-1.85728e-07
-1.39979e-07
-2.03696e-07
-7.87942e-08
-2.0577e-07
-2.62201e-08
-1.7591e-07
-8.67805e-08
-3.38625e-08
1.16954e-07
-1.01266e-07
2.35443e-07
-1.79819e-07
2.75435e-07
-2.58182e-07
2.74619e-07
-3.31027e-07
2.5423e-07
-3.95442e-07
2.23103e-07
-4.49369e-07
1.84567e-07
-4.91109e-07
1.40181e-07
-5.1922e-07
9.11187e-08
-5.32537e-07
3.86003e-08
-5.30183e-07
-1.61098e-08
-5.11617e-07
-7.15172e-08
-4.76889e-07
-1.25829e-07
-4.2656e-07
-1.77271e-07
-3.61872e-07
-2.2377e-07
-2.8498e-07
-2.6262e-07
-1.99571e-07
-2.89104e-07
-1.12526e-07
-2.92815e-07
-3.75348e-08
-2.50901e-07
-1.24315e-07
-4.69186e-08
1.63873e-07
-1.39931e-07
3.28456e-07
-2.4819e-07
3.83694e-07
-3.56302e-07
3.82731e-07
-4.57162e-07
3.55091e-07
-5.46927e-07
3.12867e-07
-6.22843e-07
2.60483e-07
-6.82568e-07
1.99906e-07
-7.24024e-07
1.32575e-07
-7.45421e-07
5.99976e-08
-7.45326e-07
-1.62055e-08
-7.22398e-07
-9.4445e-08
-6.76362e-07
-1.71864e-07
-6.07592e-07
-2.46042e-07
-5.17472e-07
-3.13891e-07
-4.08852e-07
-3.7124e-07
-2.87021e-07
-4.10936e-07
-1.62108e-07
-4.17727e-07
-5.41616e-08
-3.58848e-07
-1.78477e-07
-6.46723e-08
2.28545e-07
-1.92401e-07
4.56185e-07
-3.40864e-07
5.32157e-07
-4.89308e-07
5.31175e-07
-6.28394e-07
4.94176e-07
-7.53159e-07
4.37633e-07
-8.60023e-07
3.67347e-07
-9.45829e-07
2.85713e-07
-1.00762e-06
1.94367e-07
-1.04267e-06
9.50443e-08
-1.04881e-06
-1.00603e-08
-1.02285e-06
-1.20403e-07
-9.63806e-07
-2.30912e-07
-8.71288e-07
-3.3856e-07
-7.464e-07
-4.38778e-07
-5.92622e-07
-5.25018e-07
-4.1749e-07
-5.86068e-07
-2.36237e-07
-5.9898e-07
-7.89664e-08
-5.16118e-07
-2.57443e-07
-8.85353e-08
3.17081e-07
-2.62793e-07
6.30442e-07
-4.64987e-07
7.34351e-07
-6.6737e-07
7.33558e-07
-8.579e-07
6.84706e-07
-1.03041e-06
6.10142e-07
-1.18045e-06
5.17385e-07
-1.30394e-06
4.09207e-07
-1.39683e-06
2.87252e-07
-1.45495e-06
1.5317e-07
-1.47591e-06
1.09008e-08
-1.45185e-06
-1.44464e-07
-1.38076e-06
-3.02e-07
-1.26004e-06
-4.59281e-07
-1.0892e-06
-6.09625e-07
-8.71538e-07
-7.42676e-07
-6.17413e-07
-8.40192e-07
-3.50225e-07
-8.66168e-07
-1.16914e-07
-7.49429e-07
-3.74357e-07
-1.20261e-07
4.37342e-07
-3.56162e-07
8.66342e-07
-6.29123e-07
1.00731e-06
-9.02374e-07
1.00681e-06
-1.16081e-06
9.43144e-07
-1.39724e-06
8.4657e-07
-1.60661e-06
7.26752e-07
-1.78415e-06
5.86749e-07
-1.92478e-06
4.27884e-07
-2.02287e-06
2.51262e-07
-2.07159e-06
5.96192e-08
-2.06374e-06
-1.52314e-07
-1.9898e-06
-3.75936e-07
-1.84223e-06
-6.06852e-07
-1.61543e-06
-8.36425e-07
-1.30954e-06
-1.04857e-06
-9.36936e-07
-1.2128e-06
-5.33847e-07
-1.26926e-06
-1.77494e-07
-1.10578e-06
-5.51851e-07
-1.62226e-07
5.99568e-07
-4.79022e-07
1.18314e-06
-8.43658e-07
1.37195e-06
-1.2078e-06
1.37096e-06
-1.55326e-06
1.2886e-06
-1.87252e-06
1.16583e-06
-2.16079e-06
1.01502e-06
-2.41345e-06
8.39407e-07
-2.62505e-06
6.39485e-07
-2.78867e-06
4.14884e-07
-2.89512e-06
1.6607e-07
-2.93428e-06
-1.13153e-07
-2.88522e-06
-4.24996e-07
-2.73014e-06
-7.6193e-07
-2.44982e-06
-1.11674e-06
-2.03106e-06
-1.46733e-06
-1.48129e-06
-1.76257e-06
-8.53747e-07
-1.8968e-06
-2.8276e-07
-1.67677e-06
-8.34611e-07
-2.18876e-07
8.18444e-07
-6.41677e-07
1.60594e-06
-1.1227e-06
1.85297e-06
-1.59952e-06
1.84777e-06
-2.05158e-06
1.74067e-06
-2.4727e-06
1.58695e-06
-2.86028e-06
1.4026e-06
-3.212e-06
1.19112e-06
-3.52434e-06
9.51828e-07
-3.79114e-06
6.81678e-07
-4.00132e-06
3.76254e-07
-4.15412e-06
3.96463e-08
-4.19618e-06
-3.82935e-07
-4.10039e-06
-8.57718e-07
-3.81631e-06
-1.40082e-06
-3.28922e-06
-1.99442e-06
-2.49005e-06
-2.56174e-06
-1.47884e-06
-2.90801e-06
-4.94804e-07
-2.6608e-06
-1.32942e-06
-2.98624e-07
1.11707e-06
-8.68674e-07
2.17599e-06
-1.49666e-06
2.48096e-06
-2.10368e-06
2.45479e-06
-2.67431e-06
2.31129e-06
-3.20835e-06
2.12099e-06
-3.7084e-06
1.90265e-06
-4.17809e-06
1.66082e-06
-4.62103e-06
1.39477e-06
-5.03869e-06
1.09933e-06
-5.42667e-06
7.64238e-07
-5.76122e-06
3.74199e-07
-6.03526e-06
-1.08902e-07
-6.16568e-06
-7.27295e-07
-6.04293e-06
-1.52357e-06
-5.51308e-06
-2.52427e-06
-4.42886e-06
-3.64597e-06
-2.79225e-06
-4.54462e-06
-9.8973e-07
-4.46332e-06
-2.31915e-06
-4.13968e-07
1.53104e-06
-1.14316e-06
2.90518e-06
-1.95024e-06
3.28804e-06
-2.72261e-06
3.22716e-06
-3.43283e-06
3.02151e-06
-4.08137e-06
2.76953e-06
-4.68089e-06
2.50217e-06
-5.24972e-06
2.22964e-06
-5.80867e-06
1.95372e-06
-6.37853e-06
1.66919e-06
-6.97541e-06
1.36112e-06
-7.59943e-06
9.98212e-07
-8.2321e-06
5.23774e-07
-8.76336e-06
-1.9604e-07
-8.98732e-06
-1.29961e-06
-8.63823e-06
-2.87336e-06
-7.39795e-06
-4.88624e-06
-5.11198e-06
-6.8306e-06
-2.14267e-06
-7.43263e-06
-4.46182e-06
-9.53907e-07
2.48494e-06
-2.00288e-06
3.95416e-06
-2.8643e-06
4.14946e-06
-3.67482e-06
4.03768e-06
-4.40604e-06
3.75273e-06
-5.0486e-06
3.41209e-06
-5.61191e-06
3.06548e-06
-6.12159e-06
2.73931e-06
-6.61141e-06
2.44355e-06
-7.11699e-06
2.17477e-06
-7.66867e-06
1.9128e-06
-8.27789e-06
1.60743e-06
-8.9056e-06
1.15148e-06
-9.38476e-06
2.8312e-07
-9.78265e-06
-9.01715e-07
-9.80177e-06
-2.85424e-06
-9.05059e-06
-5.63743e-06
-7.16261e-06
-8.71857e-06
-3.866e-06
-1.07292e-05
-8.32782e-06
-3.13581e-06
5.62075e-06
-5.13992e-06
5.95827e-06
-5.85378e-06
4.86332e-06
-5.84238e-06
4.02628e-06
-5.47169e-06
3.38204e-06
-4.92559e-06
2.86599e-06
-4.30266e-06
2.44255e-06
-3.65895e-06
2.09561e-06
-3.02533e-06
1.80992e-06
-2.41778e-06
1.56722e-06
-1.84753e-06
1.34256e-06
-1.33518e-06
1.09507e-06
-9.4939e-07
7.65693e-07
-9.35863e-07
2.69593e-07
-1.06366e-06
-7.73918e-07
-1.46688e-06
-2.45102e-06
-2.22898e-06
-4.87533e-06
-3.26179e-06
-7.68576e-06
-3.0742e-06
-1.09168e-05
-1.1402e-05
5.62075e-06
1.1579e-05
1.64423e-05
2.04686e-05
2.38507e-05
2.67167e-05
2.91592e-05
3.12548e-05
3.30647e-05
3.4632e-05
3.59745e-05
3.70696e-05
3.78353e-05
3.81049e-05
3.7331e-05
3.48799e-05
3.00046e-05
2.23188e-05
1.1402e-05
)
;

boundaryField
{
    movingWall
    {
        type            calculated;
        value           uniform 0;
    }
    fixedWalls
    {
        type            calculated;
        value           uniform 0;
    }
    frontAndBack
    {
        type            empty;
        value           nonuniform 0();
    }
}


// ************************************************************************* //
