/*--------------------------------*- C++ -*----------------------------------*\
  =========                 |
  \\      /  F ield         | OpenFOAM: The Open Source CFD Toolbox
   \\    /   O peration     | Website:  https://openfoam.org
    \\  /    A nd           | Version:  7
     \\/     M anipulation  |
\*---------------------------------------------------------------------------*/
FoamFile
{
    version     2.0;
    format      ascii;
    class       volVectorField;
    location    "0.2";
    object      U;
}
// * * * * * * * * * * * * * * * * * * * * * * * * * * * * * * * * * * * * * //

dimensions      [0 1 -1 0 0 0 0];

internalField   nonuniform List<vector> 
400
(
(-8.66126e-06 2.03019e-05 0)
(-4.76727e-05 4.93455e-05 0)
(-0.000114337 6.09087e-05 0)
(-0.000186253 6.16017e-05 0)
(-0.000254411 5.69434e-05 0)
(-0.000315229 4.95121e-05 0)
(-0.000366489 4.03231e-05 0)
(-0.000406516 2.98554e-05 0)
(-0.000434056 1.84599e-05 0)
(-0.000448252 6.47847e-06 0)
(-0.000448641 -5.73228e-06 0)
(-0.000435172 -1.78047e-05 0)
(-0.000408214 -2.93705e-05 0)
(-0.000368551 -4.00656e-05 0)
(-0.000317389 -4.95086e-05 0)
(-0.000256394 -5.71828e-05 0)
(-0.00018782 -6.20294e-05 0)
(-0.00011534 -6.14218e-05 0)
(-4.80939e-05 -4.97909e-05 0)
(-8.74182e-06 -2.04875e-05 0)
(-1.73095e-05 8.7353e-05 0)
(-8.17547e-05 0.000191896 0)
(-0.000183827 0.000230877 0)
(-0.000292111 0.000231913 0)
(-0.000394173 0.000214097 0)
(-0.000485175 0.000186149 0)
(-0.000561907 0.000151606 0)
(-0.000621845 0.000112227 0)
(-0.000663097 6.93443e-05 0)
(-0.000684366 2.42576e-05 0)
(-0.000684958 -2.16835e-05 0)
(-0.000664794 -6.70924e-05 0)
(-0.000624429 -0.000110579 0)
(-0.000565042 -0.000150763 0)
(-0.000488457 -0.000186204 0)
(-0.000397183 -0.000215006 0)
(-0.000294486 -0.000233476 0)
(-0.000185339 -0.000232719 0)
(-8.23832e-05 -0.000193472 0)
(-1.74253e-05 -8.79865e-05 0)
(-2.11795e-05 0.000187699 0)
(-0.000100744 0.000393705 0)
(-0.000227022 0.000467227 0)
(-0.00036067 0.000467345 0)
(-0.000486407 0.000430995 0)
(-0.00059846 0.000374706 0)
(-0.000692978 0.000305238 0)
(-0.000766894 0.00022604 0)
(-0.000817885 0.000139772 0)
(-0.000844342 4.9046e-05 0)
(-0.000845376 -4.34282e-05 0)
(-0.000820855 -0.000134863 0)
(-0.000771417 -0.000222456 0)
(-0.000698471 -0.000303424 0)
(-0.000604217 -0.000374866 0)
(-0.000491695 -0.000433036 0)
(-0.000364851 -0.000470827 0)
(-0.000229689 -0.000471327 0)
(-0.000101855 -0.000397217 0)
(-2.13799e-05 -0.000189104 0)
(-2.70125e-05 0.000309351 0)
(-0.000128573 0.0006404 0)
(-0.000289781 0.00075642 0)
(-0.000460369 0.000755282 0)
(-0.000620894 0.000696218 0)
(-0.000764061 0.000605389 0)
(-0.000884995 0.000493435 0)
(-0.000979789 0.000365796 0)
(-0.00104545 0.000226692 0)
(-0.00107988 8.02931e-05 0)
(-0.00108186 -6.90563e-05 0)
(-0.00105114 -0.000216868 0)
(-0.00098845 -0.000358617 0)
(-0.000895525 -0.00048979 0)
(-0.000775116 -0.000605687 0)
(-0.00063108 -0.00070028 0)
(-0.000468464 -0.000762244 0)
(-0.000294987 -0.000764655 0)
(-0.000130784 -0.0006475 0)
(-2.74266e-05 -0.000312255 0)
(-3.6122e-05 0.000468243 0)
(-0.000171308 0.000962199 0)
(-0.00038543 0.00113349 0)
(-0.000611931 0.00113077 0)
(-0.000825187 0.00104236 0)
(-0.00101563 0.000906884 0)
(-0.00117684 0.000739959 0)
(-0.00130362 0.000549532 0)
(-0.00139194 0.00034179 0)
(-0.00143891 0.000122875 0)
(-0.00144276 -0.000100773 0)
(-0.00140302 -0.000322461 0)
(-0.00132051 -0.000535394 0)
(-0.00119739 -0.000732759 0)
(-0.00103723 -0.000907435 0)
(-0.000845135 -0.00105032 0)
(-0.000627844 -0.00114448 0)
(-0.00039573 -0.00114978 0)
(-0.000175763 -0.000976366 0)
(-3.69863e-05 -0.000474254 0)
(-4.95677e-05 0.000683331 0)
(-0.000233952 0.00139613 0)
(-0.000525163 0.00164132 0)
(-0.000833057 0.0016365 0)
(-0.00112315 0.00150904 0)
(-0.00138267 0.00131418 0)
(-0.00160297 0.00107401 0)
(-0.00177699 0.000799724 0)
(-0.00189914 0.000500029 0)
(-0.00196529 0.000183618 0)
(-0.00197282 -0.000140322 0)
(-0.00192077 -0.00046215 0)
(-0.00180999 -0.000771985 0)
(-0.00164315 -0.00105983 0)
(-0.00142496 -0.00131515 0)
(-0.00116227 -0.00152455 0)
(-0.000864351 -0.00166331 0)
(-0.000545522 -0.00167332 0)
(-0.000242889 -0.00142421 0)
(-5.13525e-05 -0.000695712 0)
(-6.88484e-05 0.000979621 0)
(-0.00032332 0.00199124 0)
(-0.000724006 0.00233676 0)
(-0.00114746 0.00232917 0)
(-0.00154682 0.00214915 0)
(-0.00190492 0.00187428 0)
(-0.00221004 0.00153527 0)
(-0.00245247 0.00114745 0)
(-0.00262434 0.000722753 0)
(-0.00271967 0.000273175 0)
(-0.00273437 -0.000188486 0)
(-0.00266658 -0.000648629 0)
(-0.00251691 -0.00109308 0)
(-0.00228857 -0.00150733 0)
(-0.00198765 -0.00187595 0)
(-0.00162347 -0.00217925 0)
(-0.00120891 -0.00238148 0)
(-0.000764147 -0.00239944 0)
(-0.000341142 -0.00204665 0)
(-7.24812e-05 -0.0010049 0)
(-9.60352e-05 0.00139091 0)
(-0.00044877 0.00281363 0)
(-0.00100254 0.00329642 0)
(-0.00158758 0.00328538 0)
(-0.00214011 0.00303451 0)
(-0.00263704 0.00265167 0)
(-0.00306255 0.0021789 0)
(-0.00340322 0.00163685 0)
(-0.00364793 0.00104146 0)
(-0.00378786 0.000408877 0)
(-0.00381654 -0.000243413 0)
(-0.00373031 -0.000896551 0)
(-0.00352892 -0.00153036 0)
(-0.00321585 -0.00212386 0)
(-0.00279875 -0.00265434 0)
(-0.00229017 -0.00309277 0)
(-0.00170815 -0.00338726 0)
(-0.00108153 -0.00341896 0)
(-0.000484111 -0.0029226 0)
(-0.000103323 -0.00144202 0)
(-0.000133908 0.00196289 0)
(-0.000622823 0.00395237 0)
(-0.00138826 0.00462347 0)
(-0.0021968 0.00460857 0)
(-0.00296178 0.00426278 0)
(-0.00365249 0.00373503 0)
(-0.00424772 0.00308222 0)
(-0.00472904 0.0023315 0)
(-0.0050807 0.00150359 0)
(-0.00528961 0.000619692 0)
(-0.00534548 -0.000296919 0)
(-0.00524109 -0.00122069 0)
(-0.00497383 -0.00212306 0)
(-0.00454661 -0.00297366 0)
(-0.00396835 -0.00373888 0)
(-0.00325547 -0.00437531 0)
(-0.00243329 -0.00480683 0)
(-0.00154355 -0.0048629 0)
(-0.000692618 -0.00416633 0)
(-0.000148361 -0.00206525 0)
(-0.000186089 0.00275694 0)
(-0.000861779 0.00552684 0)
(-0.00191695 0.00645609 0)
(-0.00303149 0.0064377 0)
(-0.00408837 0.00596631 0)
(-0.00504737 0.00524635 0)
(-0.00588053 0.00435388 0)
(-0.00656288 0.00332371 0)
(-0.00707227 0.00218182 0)
(-0.00738936 0.000954976 0)
(-0.00749788 -0.00032691 0)
(-0.00738373 -0.00163061 0)
(-0.0070385 -0.00291604 0)
(-0.00646241 -0.00413938 0)
(-0.00566397 -0.00525041 0)
(-0.00466344 -0.00618307 0)
(-0.00349584 -0.00682346 0)
(-0.00222253 -0.00692422 0)
(-0.000999406 -0.00594697 0)
(-0.000214559 -0.00296047 0)
(-0.000257163 0.00385465 0)
(-0.00118628 0.00769541 0)
(-0.00263386 0.00897724 0)
(-0.00416281 0.00895732 0)
(-0.00561643 0.00832251 0)
(-0.00694332 0.00735195 0)
(-0.00810774 0.00614605 0)
(-0.00907673 0.00474804 0)
(-0.00981964 0.00318868 0)
(-0.0103083 0.0014999 0)
(-0.010518 -0.000282173 0)
(-0.0104217 -0.0021176 0)
(-0.00999745 -0.0039511 0)
(-0.00923813 -0.00572045 0)
(-0.00814671 -0.0073503 0)
(-0.00674432 -0.0087378 0)
(-0.00507759 -0.00970782 0)
(-0.00323762 -0.00989438 0)
(-0.00145833 -0.00852192 0)
(-0.000313181 -0.00425755 0)
(-0.000352797 0.00536282 0)
(-0.00162187 0.0106652 0)
(-0.00359473 0.0124254 0)
(-0.00567763 0.0124081 0)
(-0.00766305 0.0115649 0)
(-0.00948777 0.010275 0)
(-0.0111084 0.00866927 0)
(-0.0124834 0.00679909 0)
(-0.0135718 0.00469751 0)
(-0.0143341 0.00239768 0)
(-0.0147361 -6.14809e-05 0)
(-0.0147267 -0.00262867 0)
(-0.0142553 -0.00524258 0)
(-0.0132972 -0.007818 0)
(-0.0118363 -0.0102421 0)
(-0.00988301 -0.0123513 0)
(-0.00749213 -0.0138663 0)
(-0.00479848 -0.0142277 0)
(-0.002164 -0.0122977 0)
(-0.000463399 -0.0061594 0)
(-0.000480086 0.00741922 0)
(-0.00220014 0.0147028 0)
(-0.00486731 0.0171047 0)
(-0.00767898 0.0170958 0)
(-0.010364 0.0159917 0)
(-0.0128493 0.0143063 0)
(-0.0150873 0.0122084 0)
(-0.0170306 0.00975587 0)
(-0.0186302 0.00697886 0)
(-0.0198339 0.00390407 0)
(-0.0205786 0.000564561 0)
(-0.0207957 -0.0029912 0)
(-0.0203984 -0.00670751 0)
(-0.0192999 -0.0104781 0)
(-0.0174317 -0.0141429 0)
(-0.0147596 -0.0174423 0)
(-0.011323 -0.0199135 0)
(-0.00731008 -0.0206589 0)
(-0.00330069 -0.0179489 0)
(-0.00070086 -0.00899624 0)
(-0.000649178 0.0102011 0)
(-0.00296311 0.0201472 0)
(-0.0065367 0.0233927 0)
(-0.0102883 0.023392 0)
(-0.0138687 0.0219639 0)
(-0.0172031 0.0198032 0)
(-0.0202492 0.0171264 0)
(-0.0229623 0.0139958 0)
(-0.0252934 0.0104302 0)
(-0.0271818 0.00643642 0)
(-0.0285481 0.00202254 0)
(-0.0292994 -0.00279923 0)
(-0.0292764 -0.00802449 0)
(-0.0282835 -0.013542 0)
(-0.0261316 -0.0191629 0)
(-0.0226458 -0.024503 0)
(-0.017753 -0.028783 0)
(-0.0116554 -0.0304617 0)
(-0.00529407 -0.0267199 0)
(-0.00110952 -0.0133723 0)
(-0.000881797 0.0139548 0)
(-0.00398403 0.027459 0)
(-0.00872852 0.0317683 0)
(-0.0136604 0.0317319 0)
(-0.0183415 0.0298817 0)
(-0.0227141 0.0271583 0)
(-0.0267609 0.0238364 0)
(-0.0304614 0.0199795 0)
(-0.0337882 0.0155841 0)
(-0.0366925 0.0106148 0)
(-0.0391 0.00501148 0)
(-0.0409494 -0.00130054 0)
(-0.0419732 -0.00836887 0)
(-0.0417718 -0.0162783 0)
(-0.0399531 -0.0249276 0)
(-0.0359743 -0.0338578 0)
(-0.0293288 -0.0418068 0)
(-0.0199587 -0.0459616 0)
(-0.00930496 -0.0411934 0)
(-0.00194558 -0.02064 0)
(-0.0012184 0.0188925 0)
(-0.0054248 0.0369654 0)
(-0.0117308 0.0426197 0)
(-0.0180927 0.0425428 0)
(-0.0240135 0.0401777 0)
(-0.0295294 0.0367957 0)
(-0.0346896 0.0327787 0)
(-0.0395285 0.0282216 0)
(-0.0440848 0.0231117 0)
(-0.0483878 0.0173619 0)
(-0.0524268 0.010807 0)
(-0.0560773 0.00319964 0)
(-0.0592103 -0.00577439 0)
(-0.0613759 -0.0165683 0)
(-0.0616215 -0.0294963 0)
(-0.0585904 -0.0443496 0)
(-0.050602 -0.059467 0)
(-0.0365795 -0.0698953 0)
(-0.0183664 -0.0656049 0)
(-0.00407402 -0.033363 0)
(-0.00181156 0.0273735 0)
(-0.00728957 0.0516255 0)
(-0.0153686 0.0573268 0)
(-0.023535 0.055834 0)
(-0.0309817 0.0522293 0)
(-0.0377413 0.0479645 0)
(-0.0439398 0.0433116 0)
(-0.0497379 0.038292 0)
(-0.0553354 0.0328662 0)
(-0.0609462 0.0269202 0)
(-0.0667673 0.0202075 0)
(-0.0729327 0.0122661 0)
(-0.0793829 0.00230614 0)
(-0.085483 -0.0107507 0)
(-0.089665 -0.0283466 0)
(-0.089398 -0.0521015 0)
(-0.0814158 -0.0809833 0)
(-0.0633332 -0.106924 0)
(-0.0368911 -0.110161 0)
(-0.00989183 -0.0597126 0)
(-0.00499257 0.0282134 0)
(-0.0144847 0.0599193 0)
(-0.0244166 0.0733743 0)
(-0.0330637 0.0751345 0)
(-0.0407832 0.0715839 0)
(-0.047596 0.0659348 0)
(-0.0535332 0.0595899 0)
(-0.0587939 0.0532246 0)
(-0.0637005 0.04714 0)
(-0.0686252 0.0413529 0)
(-0.0739291 0.0355518 0)
(-0.0798433 0.0288949 0)
(-0.0861828 0.0196423 0)
(-0.0920462 0.00463592 0)
(-0.0972363 -0.0212415 0)
(-0.0994778 -0.0617875 0)
(-0.0948847 -0.116283 0)
(-0.0807958 -0.172772 0)
(-0.0575251 -0.200436 0)
(-0.0184443 -0.135393 0)
(-0.0217993 0.095075 0)
(-0.0453029 0.113017 0)
(-0.0576879 0.0939349 0)
(-0.0597259 0.0797794 0)
(-0.0570239 0.0692708 0)
(-0.0520684 0.0603545 0)
(-0.0460546 0.0528023 0)
(-0.0396526 0.0465537 0)
(-0.033253 0.0413704 0)
(-0.0270741 0.0368553 0)
(-0.02125 0.0323656 0)
(-0.0159292 0.026715 0)
(-0.0115998 0.0177052 0)
(-0.0103828 0.00151715 0)
(-0.0111523 -0.0272394 0)
(-0.0132703 -0.0740755 0)
(-0.0170749 -0.140248 0)
(-0.0236666 -0.216756 0)
(-0.0350629 -0.276221 0)
(-0.00795052 -0.238796 0)
(0.0711087 0.0842962 0)
(0.0771915 0.100882 0)
(0.1331 0.0923662 0)
(0.18346 0.0814171 0)
(0.222719 0.0709601 0)
(0.254086 0.0612329 0)
(0.280285 0.0523451 0)
(0.302751 0.0444392 0)
(0.322145 0.0376012 0)
(0.338881 0.0318187 0)
(0.353107 0.0269797 0)
(0.36492 0.0228087 0)
(0.373631 0.0190379 0)
(0.377848 0.0143588 0)
(0.374928 0.00808582 0)
(0.362744 -7.51807e-07 0)
(0.328658 -0.0138925 0)
(0.280646 -0.0272105 0)
(0.175775 -0.0703388 0)
(0.106861 -0.11642 0)
)
;

boundaryField
{
    movingWall
    {
        type            fixedValue;
        value           uniform (1 0 0);
    }
    fixedWalls
    {
        type            noSlip;
    }
    frontAndBack
    {
        type            empty;
    }
}


// ************************************************************************* //
