/*--------------------------------*- C++ -*----------------------------------*\
  =========                 |
  \\      /  F ield         | OpenFOAM: The Open Source CFD Toolbox
   \\    /   O peration     | Website:  https://openfoam.org
    \\  /    A nd           | Version:  7
     \\/     M anipulation  |
\*---------------------------------------------------------------------------*/
FoamFile
{
    version     2.0;
    format      ascii;
    class       volScalarField;
    location    "0.1";
    object      p;
}
// * * * * * * * * * * * * * * * * * * * * * * * * * * * * * * * * * * * * * //

dimensions      [0 2 -2 0 0 0 0];

internalField   nonuniform List<scalar> 
400
(
1.7532e-08
-0.000109279
-0.000112156
-4.21848e-06
0.000208535
0.000520351
0.000924191
0.00141107
0.00196948
0.00258484
0.00323908
0.00391076
0.00457466
0.00520299
0.00576622
0.00623467
0.00658096
0.00678312
0.00682624
0.00671734
0.000103186
-9.66756e-06
-3.88489e-06
0.000105431
0.000309389
0.000606369
0.000991864
0.00145822
0.00199489
0.00258809
0.00322045
0.00387113
0.00451554
0.00512641
0.00567473
0.00613159
0.00647154
0.0066762
0.00672762
0.0066134
9.51297e-05
-3.6644e-05
-3.44431e-05
7.32831e-05
0.000273533
0.000565955
0.000947289
0.00141087
0.00194702
0.00254267
0.00318096
0.00384105
0.00449818
0.00512426
0.0056889
0.00616135
0.00651433
0.00672784
0.00677782
0.00663924
-3.40696e-05
-0.00018508
-0.00018949
-8.32117e-05
0.000117756
0.000413533
0.000801731
0.0012766
0.00182936
0.0024476
0.00311473
0.00380997
0.00450732
0.00517684
0.00578518
0.00629754
0.00668215
0.00691462
0.00696481
0.00680086
-0.000287416
-0.000456138
-0.000466647
-0.000359942
-0.000154081
0.000151678
0.000555958
0.00105409
0.00163834
0.00229707
0.00301392
0.00376827
0.00453221
0.00527307
0.00595301
0.00653101
0.0069681
0.00723318
0.00728936
0.00710017
-0.000672032
-0.000860385
-0.000876894
-0.000767756
-0.000553089
-0.000231286
0.000197568
0.000730194
0.00136025
0.00207723
0.00286529
0.00370385
0.00456316
0.00540712
0.00619177
0.0068672
0.00738372
0.00769976
0.00776885
0.00754916
-0.00119815
-0.00141035
-0.00143353
-0.00132049
-0.00109397
-0.000751241
-0.000290695
0.000286241
0.000975146
0.00176742
0.00264905
0.00359728
0.00458365
0.00556762
0.00649752
0.00731139
0.00794378
0.00833668
0.0084281
0.00816794
-0.00187998
-0.00212173
-0.00215298
-0.00203541
-0.00179527
-0.00142846
-0.00093116
-0.000302334
0.000456242
0.0013386
0.00233294
0.00341908
0.00456746
0.00573444
0.00685991
0.00786633
0.00866557
0.00917346
0.00930166
0.0089856
-0.00273657
-0.00301499
-0.00305642
-0.00293459
-0.00268062
-0.00228871
-0.00175222
-0.00106691
-0.00023099
0.000753454
0.00187863
0.00312832
0.00447504
0.00587393
0.00725702
0.00852809
0.00956727
0.0102487
0.010438
0.0100425
-0.00379277
-0.00411662
-0.00417081
-0.00404567
-0.00377922
-0.00336365
-0.00278871
-0.00204617
-0.0011297
-3.61339e-05
0.00123278
0.00266756
0.00424722
0.00593044
0.00764529
0.00927633
0.0106618
0.0116107
0.0119058
0.0113961
-0.00508093
-0.00546091
-0.00553015
-0.00540262
-0.00512632
-0.00469095
-0.00408178
-0.00328578
-0.00229133
-0.00108894
0.00032771
0.00195936
0.00379796
0.00581431
0.00794279
0.0100556
0.0119424
0.0133141
0.013804
0.0131337
-0.00664449
-0.00709312
-0.0071775
-0.0070467
-0.00676341
-0.00631405
-0.00567808
-0.00483705
-0.00377389
-0.00247263
-0.000917858
0.000904561
0.00300723
0.00538614
0.00800238
0.0107395
0.0133479
0.0154022
0.0162704
0.0154063
-0.0085449
-0.0090751
-0.009168
-0.0090276
-0.00873846
-0.00828147
-0.00762809
-0.00675397
-0.00563761
-0.00425835
-0.00259309
-0.000612758
0.00171818
0.00443997
0.00757122
0.0110625
0.0146842
0.0178604
0.0195046
0.0185441
-0.0108762
-0.0114955
-0.0115731
-0.0114045
-0.0111057
-0.0106455
-0.00998323
-0.00908811
-0.00793688
-0.00650936
-0.00478136
-0.00271528
-0.000251738
0.00269854
0.00624364
0.0105024
0.0154512
0.0204929
0.0238307
0.0233824
-0.0137959
-0.0144884
-0.0144854
-0.0142453
-0.0139235
-0.0134592
-0.0127906
-0.0118798
-0.0107062
-0.0092593
-0.00752743
-0.00548232
-0.00305791
-0.000130612
0.00346166
0.00813655
0.0144495
0.0223053
0.0291676
0.0312196
-0.0175978
-0.0182687
-0.0180155
-0.0176161
-0.0172449
-0.0167664
-0.0160803
-0.0151395
-0.0139331
-0.0124729
-0.01078
-0.0088668
-0.00670491
-0.00415214
-0.00124641
0.0027678
0.00941625
0.0201767
0.032903
0.04182
-0.0229376
-0.0231845
-0.0222457
-0.0215358
-0.0210791
-0.0205596
-0.0198134
-0.0187852
-0.017485
-0.0159627
-0.0142918
-0.0125608
-0.0108754
-0.00933749
-0.00754391
-0.00570489
-0.000927323
0.0111851
0.0316923
0.0553761
-0.0314777
-0.0296455
-0.0270324
-0.0258279
-0.0252
-0.0245452
-0.0236277
-0.0223934
-0.0208873
-0.0192028
-0.0174663
-0.0158371
-0.0145368
-0.0138395
-0.0139878
-0.0139993
-0.0111861
0.00315542
0.0363414
0.0902975
-0.045949
-0.0375846
-0.0316308
-0.0290547
-0.0278497
-0.0269251
-0.0258202
-0.0244261
-0.0227836
-0.0209994
-0.0192307
-0.0176645
-0.0165603
-0.0161165
-0.0162807
-0.0155159
-0.00826609
0.0186114
0.0799093
0.187119
-0.0987684
-0.0403356
-0.023802
-0.0224419
-0.0228231
-0.0227705
-0.0224177
-0.0217759
-0.0208027
-0.0195708
-0.0182742
-0.0171204
-0.0163819
-0.0159748
-0.0152295
-0.0106242
0.0057693
0.0557621
0.162909
0.335486
)
;

boundaryField
{
    movingWall
    {
        type            zeroGradient;
    }
    fixedWalls
    {
        type            zeroGradient;
    }
    frontAndBack
    {
        type            empty;
    }
}


// ************************************************************************* //
