/*--------------------------------*- C++ -*----------------------------------*\
  =========                 |
  \\      /  F ield         | OpenFOAM: The Open Source CFD Toolbox
   \\    /   O peration     | Website:  https://openfoam.org
    \\  /    A nd           | Version:  7
     \\/     M anipulation  |
\*---------------------------------------------------------------------------*/
FoamFile
{
    version     2.0;
    format      ascii;
    class       surfaceScalarField;
    location    "0.1";
    object      phi;
}
// * * * * * * * * * * * * * * * * * * * * * * * * * * * * * * * * * * * * * //

dimensions      [0 3 -1 0 0 0 0];

internalField   nonuniform List<scalar> 
760
(
-1.90387e-08
1.90374e-08
-7.36884e-08
5.46499e-08
-1.41286e-07
6.75981e-08
-2.09092e-07
6.78068e-08
-2.72261e-07
6.31693e-08
-3.28547e-07
5.62857e-08
-3.76351e-07
4.78039e-08
-4.14247e-07
3.7896e-08
-4.40907e-07
2.66592e-08
-4.55125e-07
1.42187e-08
-4.55872e-07
7.46821e-10
-4.42397e-07
-1.3475e-08
-4.14302e-07
-2.80949e-08
-3.71686e-07
-4.26161e-08
-3.15285e-07
-5.6401e-08
-2.46729e-07
-6.85561e-08
-1.69207e-07
-7.75226e-08
-8.96166e-08
-7.95897e-08
-2.40148e-08
-6.56016e-08
-2.40148e-08
-5.65277e-08
7.55653e-08
-1.69571e-07
1.67694e-07
-3.01307e-07
1.99335e-07
-4.32669e-07
1.99169e-07
-5.54786e-07
1.85286e-07
-6.62937e-07
1.64437e-07
-7.53831e-07
1.38698e-07
-8.24737e-07
1.08802e-07
-8.73284e-07
7.52053e-08
-8.97452e-07
3.83872e-08
-8.95683e-07
-1.0221e-09
-8.66861e-07
-4.22975e-08
-8.10646e-07
-8.43099e-08
-7.27561e-07
-1.25701e-07
-6.19297e-07
-1.64665e-07
-4.89189e-07
-1.98663e-07
-3.43385e-07
-2.23326e-07
-1.93858e-07
-2.29116e-07
-6.4623e-08
-1.94837e-07
-8.86377e-08
-7.41177e-08
1.49683e-07
-2.15136e-07
3.08713e-07
-3.7648e-07
3.60679e-07
-5.36193e-07
3.58882e-07
-6.8417e-07
3.33263e-07
-8.14897e-07
2.95163e-07
-9.24476e-07
2.48277e-07
-1.0097e-06
1.94029e-07
-1.06783e-06
1.33335e-07
-1.09656e-06
6.7111e-08
-1.09405e-06
-3.5294e-09
-1.05906e-06
-7.72904e-08
-9.91122e-07
-1.52245e-07
-8.90801e-07
-2.26021e-07
-7.60013e-07
-2.95453e-07
-6.02633e-07
-3.56043e-07
-4.25836e-07
-4.00123e-07
-2.4345e-07
-4.11503e-07
-8.33925e-08
-3.54894e-07
-1.7203e-07
-8.25596e-08
2.32243e-07
-2.39712e-07
4.65866e-07
-4.18637e-07
5.39604e-07
-5.95059e-07
5.35304e-07
-7.58225e-07
4.96429e-07
-9.0236e-07
4.39299e-07
-1.02339e-06
3.69304e-07
-1.11793e-06
2.88575e-07
-1.18308e-06
1.98477e-07
-1.21629e-06
1.00328e-07
-1.21551e-06
-4.31642e-09
-1.17907e-06
-1.13721e-07
-1.10617e-06
-2.25148e-07
-9.96957e-07
-3.35235e-07
-8.53067e-07
-4.39343e-07
-6.7837e-07
-5.3074e-07
-4.80572e-07
-5.97921e-07
-2.75102e-07
-6.16973e-07
-9.39301e-08
-5.36066e-07
-2.6596e-07
-8.97214e-08
3.21965e-07
-2.61339e-07
6.37484e-07
-4.5653e-07
7.34794e-07
-6.48668e-07
7.27442e-07
-8.26303e-07
6.74064e-07
-9.83473e-07
5.96469e-07
-1.11603e-06
5.01858e-07
-1.22052e-06
3.93064e-07
-1.29388e-06
2.71846e-07
-1.33337e-06
1.39811e-07
-1.33656e-06
-1.12696e-09
-1.30114e-06
-1.49135e-07
-1.22563e-06
-3.00663e-07
-1.10936e-06
-4.51501e-07
-9.53253e-07
-5.95452e-07
-7.60829e-07
-7.23164e-07
-5.40322e-07
-8.18428e-07
-3.09355e-07
-8.4794e-07
-1.05125e-07
-7.40296e-07
-3.71085e-07
-9.84981e-08
4.20463e-07
-2.8731e-07
8.26295e-07
-5.01831e-07
9.49316e-07
-7.12722e-07
9.38333e-07
-9.0769e-07
8.69032e-07
-1.08058e-06
7.69359e-07
-1.22722e-06
6.48501e-07
-1.34417e-06
5.10011e-07
-1.42828e-06
3.55951e-07
-1.4765e-06
1.88039e-07
-1.48607e-06
8.43637e-09
-1.45368e-06
-1.81519e-07
-1.37687e-06
-3.77481e-07
-1.25362e-06
-5.74742e-07
-1.08355e-06
-7.65522e-07
-8.69357e-07
-9.37362e-07
-6.19721e-07
-1.06806e-06
-3.55259e-07
-1.1124e-06
-1.20381e-07
-9.75174e-07
-4.91466e-07
-1.09886e-07
5.30348e-07
-3.20415e-07
1.03682e-06
-5.59069e-07
1.18797e-06
-7.93188e-07
1.17245e-06
-1.00949e-06
1.08534e-06
-1.20167e-06
9.61541e-07
-1.36567e-06
8.12493e-07
-1.49815e-06
6.42497e-07
-1.59603e-06
4.53826e-07
-1.65609e-06
2.48099e-07
-1.6748e-06
2.71448e-08
-1.64821e-06
-2.08108e-07
-1.57209e-06
-4.53602e-07
-1.44244e-06
-7.04384e-07
-1.25665e-06
-9.51318e-07
-1.01565e-06
-1.17836e-06
-7.28151e-07
-1.35556e-06
-4.186e-07
-1.42195e-06
-1.41609e-07
-1.25217e-06
-6.33075e-07
-1.24462e-07
6.5481e-07
-3.62273e-07
1.27464e-06
-6.30778e-07
1.45647e-06
-8.9321e-07
1.43488e-06
-1.13519e-06
1.32731e-06
-1.35038e-06
1.17674e-06
-1.53505e-06
9.97163e-07
-1.68627e-06
7.93712e-07
-1.8012e-06
5.68754e-07
-1.87662e-06
3.23524e-07
-1.90848e-06
5.89986e-08
-1.89173e-06
-2.24849e-07
-1.82007e-06
-5.2527e-07
-1.68651e-06
-8.3794e-07
-1.48476e-06
-1.15307e-06
-1.21229e-06
-1.45083e-06
-8.76544e-07
-1.69131e-06
-5.0644e-07
-1.79206e-06
-1.71166e-07
-1.58744e-06
-8.04241e-07
-1.4291e-07
7.97721e-07
-4.14638e-07
1.54636e-06
-7.19523e-07
1.76136e-06
-1.01573e-06
1.73109e-06
-1.28772e-06
1.59931e-06
-1.52944e-06
1.41846e-06
-1.73784e-06
1.20556e-06
-1.91079e-06
9.6666e-07
-2.04614e-06
7.04109e-07
-2.14103e-06
4.18408e-07
-2.19121e-06
1.09178e-07
-2.19039e-06
-2.25669e-07
-2.1298e-06
-5.85858e-07
-1.99831e-06
-9.69426e-07
-1.7838e-06
-1.36758e-06
-1.47719e-06
-1.75744e-06
-1.08172e-06
-2.08678e-06
-6.30414e-07
-2.24337e-06
-2.13214e-07
-2.00464e-06
-1.01745e-06
-1.66292e-07
9.64013e-07
-4.80046e-07
1.86012e-06
-8.28795e-07
2.11011e-06
-1.16449e-06
2.06678e-06
-1.47058e-06
1.9054e-06
-1.74174e-06
1.68962e-06
-1.97623e-06
1.44004e-06
-2.17333e-06
1.16376e-06
-2.33225e-06
8.63023e-07
-2.45112e-06
5.3728e-07
-2.5259e-06
1.83957e-07
-2.54974e-06
-2.01824e-07
-2.51103e-06
-6.24566e-07
-2.39333e-06
-1.08713e-06
-2.17576e-06
-1.58515e-06
-1.83768e-06
-2.09552e-06
-1.37177e-06
-2.55269e-06
-8.11753e-07
-2.80338e-06
-2.76108e-07
-2.54029e-06
-1.29356e-06
-1.96373e-07
1.16039e-06
-5.62459e-07
2.2262e-06
-9.63751e-07
2.5114e-06
-1.34472e-06
2.44775e-06
-1.68827e-06
2.24895e-06
-1.99066e-06
1.99201e-06
-2.25229e-06
1.70167e-06
-2.47475e-06
1.38622e-06
-2.65948e-06
1.04776e-06
-2.80661e-06
6.84408e-07
-2.91356e-06
2.90907e-07
-2.97363e-06
-1.41759e-07
-2.97315e-06
-6.25042e-07
-2.88976e-06
-1.17053e-06
-2.69059e-06
-1.78432e-06
-2.33572e-06
-2.45039e-06
-1.79489e-06
-3.09351e-06
-1.09128e-06
-3.507e-06
-3.7818e-07
-3.25339e-06
-1.67174e-06
-2.36194e-07
1.39658e-06
-6.68256e-07
2.65827e-06
-1.13221e-06
2.97535e-06
-1.5639e-06
2.87945e-06
-1.94684e-06
2.63189e-06
-2.28025e-06
2.32542e-06
-2.56787e-06
1.98929e-06
-2.81471e-06
1.63306e-06
-3.02562e-06
1.25867e-06
-3.20411e-06
8.62891e-07
-3.35072e-06
4.37516e-07
-3.4611e-06
-3.13744e-08
-3.52164e-06
-5.64502e-07
-3.50543e-06
-1.18674e-06
-3.36559e-06
-1.92416e-06
-3.03294e-06
-2.78304e-06
-2.43244e-06
-3.69401e-06
-1.54804e-06
-4.39139e-06
-5.61443e-07
-4.23999e-06
-2.23319e-06
-2.91192e-07
1.68777e-06
-8.07972e-07
3.17505e-06
-1.34615e-06
3.51353e-06
-1.83266e-06
3.36596e-06
-2.25422e-06
3.05345e-06
-2.61515e-06
2.68635e-06
-2.92406e-06
2.2982e-06
-3.19064e-06
1.89964e-06
-3.42449e-06
1.49252e-06
-3.63412e-06
1.07252e-06
-3.82552e-06
6.28918e-07
-4.00016e-06
1.43273e-07
-4.14929e-06
-4.15378e-07
-4.2468e-06
-1.08922e-06
-4.23463e-06
-1.93633e-06
-4.00575e-06
-3.01192e-06
-3.4072e-06
-4.29256e-06
-2.32335e-06
-5.47524e-06
-9.16754e-07
-5.64659e-06
-3.14994e-06
-3.71423e-07
2.05919e-06
-9.99317e-07
3.80294e-06
-1.62382e-06
4.13803e-06
-2.16553e-06
3.90767e-06
-2.61974e-06
3.50766e-06
-2.99902e-06
3.06563e-06
-3.31857e-06
2.61776e-06
-3.59398e-06
2.17505e-06
-3.84074e-06
1.73927e-06
-4.0739e-06
1.30568e-06
-4.30745e-06
8.62474e-07
-4.55283e-06
3.88645e-07
-4.81393e-06
-1.54275e-07
-5.07651e-06
-8.26643e-07
-5.28428e-06
-1.72856e-06
-5.29448e-06
-3.00173e-06
-4.84026e-06
-4.74677e-06
-3.60539e-06
-6.71012e-06
-1.59885e-06
-7.65312e-06
-4.74879e-06
-4.96011e-07
2.55521e-06
-1.27231e-06
4.57924e-06
-1.99146e-06
4.85718e-06
-2.57867e-06
4.49488e-06
-3.04819e-06
3.97718e-06
-3.42496e-06
3.4424e-06
-3.73254e-06
2.92533e-06
-3.99332e-06
2.43583e-06
-4.22926e-06
1.97521e-06
-4.46254e-06
1.53896e-06
-4.71649e-06
1.11642e-06
-5.01555e-06
6.87706e-07
-5.38355e-06
2.13729e-07
-5.83124e-06
-3.78951e-07
-6.32954e-06
-1.23025e-06
-6.72422e-06
-2.60705e-06
-6.62714e-06
-4.84386e-06
-5.42064e-06
-7.91661e-06
-2.73502e-06
-1.03387e-05
-7.48381e-06
-7.02628e-07
3.25783e-06
-1.67677e-06
5.55338e-06
-2.47764e-06
5.65805e-06
-3.07005e-06
5.0873e-06
-3.50571e-06
4.41284e-06
-3.82751e-06
3.7642e-06
-4.06954e-06
3.16736e-06
-4.26199e-06
2.62828e-06
-4.43311e-06
2.14634e-06
-4.61065e-06
1.7165e-06
-4.82434e-06
1.33011e-06
-5.10947e-06
9.72835e-07
-5.50969e-06
6.13948e-07
-6.05648e-06
1.67838e-07
-6.77764e-06
-5.09094e-07
-7.55695e-06
-1.82774e-06
-7.96526e-06
-4.43555e-06
-7.12134e-06
-8.76053e-06
-4.12436e-06
-1.33357e-05
-1.16082e-05
-1.07383e-06
4.33167e-06
-2.28248e-06
6.76202e-06
-3.05729e-06
6.43286e-06
-3.50699e-06
5.53699e-06
-3.75371e-06
4.65956e-06
-3.87089e-06
3.88138e-06
-3.90841e-06
3.20488e-06
-3.90566e-06
2.62553e-06
-3.89517e-06
2.13585e-06
-3.90454e-06
1.72587e-06
-3.96014e-06
1.38572e-06
-4.09203e-06
1.10472e-06
-4.34282e-06
8.64741e-07
-4.77893e-06
6.03948e-07
-5.40457e-06
1.16544e-07
-6.27537e-06
-9.56948e-07
-7.1078e-06
-3.60312e-06
-7.07769e-06
-8.79064e-06
-4.86021e-06
-1.55532e-05
-1.64684e-05
-1.83869e-06
6.17036e-06
-3.06939e-06
7.99272e-06
-3.28543e-06
6.6489e-06
-3.04856e-06
5.30013e-06
-2.63628e-06
4.24728e-06
-2.1666e-06
3.4117e-06
-1.69377e-06
2.73206e-06
-1.2527e-06
2.18446e-06
-8.65499e-07
1.74864e-06
-5.44012e-07
1.40439e-06
-2.94886e-07
1.13659e-06
-1.23382e-07
9.33216e-07
-4.20381e-08
7.83397e-07
-8.14979e-08
6.43408e-07
-3.47334e-07
3.82381e-07
-9.21944e-07
-3.82338e-07
-1.92745e-06
-2.59762e-06
-3.11388e-06
-7.60421e-06
-3.23891e-06
-1.54282e-05
-1.97073e-05
-3.59743e-06
9.76779e-06
-2.29524e-06
6.69053e-06
1.51273e-07
4.20239e-06
2.30882e-06
3.14258e-06
4.11053e-06
2.44557e-06
5.63769e-06
1.88454e-06
6.92362e-06
1.44613e-06
7.99144e-06
1.11663e-06
8.86945e-06
8.70638e-07
9.58774e-06
6.86096e-07
1.01737e-05
5.50644e-07
1.06531e-05
4.53819e-07
1.10436e-05
3.92905e-07
1.1348e-05
3.38954e-07
1.14938e-05
2.36581e-07
1.11996e-05
-8.81384e-08
1.0021e-05
-1.41903e-06
7.21394e-06
-4.79711e-06
3.10231e-06
-1.13165e-05
-1.6605e-05
9.76779e-06
1.64583e-05
2.06607e-05
2.38033e-05
2.62489e-05
2.81334e-05
2.95795e-05
3.06962e-05
3.15668e-05
3.22529e-05
3.28035e-05
3.32574e-05
3.36503e-05
3.39892e-05
3.42258e-05
3.41377e-05
3.27186e-05
2.79215e-05
1.6605e-05
)
;

boundaryField
{
    movingWall
    {
        type            calculated;
        value           uniform 0;
    }
    fixedWalls
    {
        type            calculated;
        value           uniform 0;
    }
    frontAndBack
    {
        type            empty;
        value           nonuniform 0();
    }
}


// ************************************************************************* //
