/*--------------------------------*- C++ -*----------------------------------*\
  =========                 |
  \\      /  F ield         | OpenFOAM: The Open Source CFD Toolbox
   \\    /   O peration     | Website:  https://openfoam.org
    \\  /    A nd           | Version:  7
     \\/     M anipulation  |
\*---------------------------------------------------------------------------*/
FoamFile
{
    version     2.0;
    format      ascii;
    class       volVectorField;
    location    "0.1";
    object      U;
}
// * * * * * * * * * * * * * * * * * * * * * * * * * * * * * * * * * * * * * //

dimensions      [0 1 -1 0 0 0 0];

internalField   nonuniform List<vector> 
400
(
(-0.000120117 0.000112389 0)
(-0.000827204 0.000423987 0)
(-0.00212438 0.00054348 0)
(-0.00351452 0.000548536 0)
(-0.00483744 0.000512601 0)
(-0.006039 0.000459253 0)
(-0.00708542 0.000393438 0)
(-0.00794717 0.000315969 0)
(-0.00859677 0.000227171 0)
(-0.0090088 0.000127745 0)
(-0.00916077 1.90052e-05 0)
(-0.0090346 -9.72711e-05 0)
(-0.00861852 -0.000217801 0)
(-0.00790916 -0.000338517 0)
(-0.00691439 -0.000454083 0)
(-0.00565683 -0.000557077 0)
(-0.00417916 -0.000634375 0)
(-0.00256283 -0.000652629 0)
(-0.00102618 -0.000527044 0)
(-0.000159292 -0.000161146 0)
(-0.000449084 0.000833997 0)
(-0.00209214 0.00203409 0)
(-0.00466366 0.00246143 0)
(-0.00736832 0.00246646 0)
(-0.00992958 0.00229786 0)
(-0.012247 0.00204466 0)
(-0.0142493 0.00173174 0)
(-0.0158772 0.00136687 0)
(-0.0170797 0.000954697 0)
(-0.017813 0.0005005 0)
(-0.018041 1.14166e-05 0)
(-0.0177366 -0.000502839 0)
(-0.0168846 -0.00102875 0)
(-0.0154861 -0.00154879 0)
(-0.0135623 -0.00204009 0)
(-0.0111619 -0.00247066 0)
(-0.00836942 -0.00278505 0)
(-0.00532853 -0.00285742 0)
(-0.00239961 -0.00239803 0)
(-0.000514773 -0.00100757 0)
(-0.000600052 0.00219936 0)
(-0.00269105 0.00466388 0)
(-0.00586639 0.00548857 0)
(-0.00916644 0.00547272 0)
(-0.0122745 0.00508749 0)
(-0.0150792 0.00451071 0)
(-0.0174967 0.00379914 0)
(-0.0194566 0.00297396 0)
(-0.0208996 0.00204867 0)
(-0.0217754 0.00103705 0)
(-0.0220423 -4.40659e-05 0)
(-0.0216691 -0.0011729 0)
(-0.020638 -0.00232063 0)
(-0.018949 -0.00344989 0)
(-0.0166256 -0.0045117 0)
(-0.013724 -0.00543704 0)
(-0.0103423 -0.00610804 0)
(-0.00664412 -0.00627271 0)
(-0.00304783 -0.00537814 0)
(-0.000676665 -0.0025463 0)
(-0.00066661 0.00379074 0)
(-0.00299839 0.00768689 0)
(-0.00653091 0.00893574 0)
(-0.0101835 0.00887729 0)
(-0.0136126 0.00823839 0)
(-0.0167043 0.00729325 0)
(-0.0193711 0.00613215 0)
(-0.0215393 0.00479054 0)
(-0.0231464 0.00329136 0)
(-0.024138 0.00165716 0)
(-0.0244682 -8.55474e-05 0)
(-0.0240991 -0.00190394 0)
(-0.0230052 -0.00375315 0)
(-0.0211786 -0.00557505 0)
(-0.0186355 -0.007292 0)
(-0.0154287 -0.00879302 0)
(-0.0116596 -0.00988928 0)
(-0.00750602 -0.0101857 0)
(-0.00344104 -0.00882244 0)
(-0.000760036 -0.00433903 0)
(-0.000721613 0.00551195 0)
(-0.00326407 0.0109701 0)
(-0.00712244 0.0126712 0)
(-0.0111041 0.0125571 0)
(-0.0148369 0.0116409 0)
(-0.018204 0.0103011 0)
(-0.0211167 0.00866283 0)
(-0.0235 0.00677554 0)
(-0.0252893 0.00467071 0)
(-0.0264269 0.00237805 0)
(-0.0268612 -6.84804e-05 0)
(-0.0265444 -0.00262742 0)
(-0.0254373 -0.00524013 0)
(-0.0235168 -0.00782874 0)
(-0.020783 -0.0102852 0)
(-0.0172767 -0.0124505 0)
(-0.0130985 -0.0140518 0)
(-0.00844532 -0.0145259 0)
(-0.00386351 -0.0126556 0)
(-0.000846876 -0.00632091 0)
(-0.000790922 0.00738558 0)
(-0.00358621 0.0145576 0)
(-0.00783068 0.0167498 0)
(-0.0122039 0.01657 0)
(-0.0162998 0.0153516 0)
(-0.0199976 0.0135884 0)
(-0.0232084 0.0114432 0)
(-0.0258571 0.00897962 0)
(-0.0278788 0.00623618 0)
(-0.0292125 0.00324677 0)
(-0.0298002 4.84967e-05 0)
(-0.0295809 -0.00331036 0)
(-0.0284957 -0.00676463 0)
(-0.0264973 -0.010219 0)
(-0.0235583 -0.0135335 0)
(-0.019696 -0.0164922 0)
(-0.0150029 -0.0187174 0)
(-0.00969986 -0.0194368 0)
(-0.00443488 -0.0170067 0)
(-0.000967015 -0.00855737 0)
(-0.000882631 0.00945868 0)
(-0.00400073 0.0185304 0)
(-0.00872944 0.0212597 0)
(-0.0135896 0.0210007 0)
(-0.0181335 0.0194479 0)
(-0.0222374 0.0172255 0)
(-0.0258138 0.0145379 0)
(-0.0287908 0.0114636 0)
(-0.0311056 0.00804609 0)
(-0.0326964 0.00431978 0)
(-0.0334967 0.000319303 0)
(-0.0334316 -0.00390869 0)
(-0.0324179 -0.00829951 0)
(-0.0303705 -0.012747 0)
(-0.027218 -0.0170807 0)
(-0.0229348 -0.0210175 0)
(-0.017589 -0.0240444 0)
(-0.0114243 -0.025119 0)
(-0.00522839 -0.0220698 0)
(-0.00113539 -0.0111511 0)
(-0.00100146 0.0117893 0)
(-0.0045286 0.0229896 0)
(-0.00986118 0.0263067 0)
(-0.0153195 0.0259454 0)
(-0.0204054 0.0240143 0)
(-0.0249951 0.0212864 0)
(-0.0290065 0.018014 0)
(-0.0323758 0.014291 0)
(-0.0350474 0.0101641 0)
(-0.0369629 0.00566315 0)
(-0.0380512 0.000812659 0)
(-0.0382221 -0.00435643 0)
(-0.0373609 -0.00979049 0)
(-0.0353315 -0.0153863 0)
(-0.0319941 -0.0209508 0)
(-0.0272472 -0.0261258 0)
(-0.0211005 -0.0302229 0)
(-0.0138049 -0.0318372 0)
(-0.00633528 -0.0281129 0)
(-0.0013705 -0.0142409 0)
(-0.00115355 0.0144472 0)
(-0.00519378 0.0280564 0)
(-0.0112706 0.0320129 0)
(-0.0174505 0.0315102 0)
(-0.023176 0.0291388 0)
(-0.0283282 0.025845 0)
(-0.0328384 0.0219367 0)
(-0.0366585 0.0175248 0)
(-0.039749 0.0126572 0)
(-0.0420628 0.00735278 0)
(-0.0435312 0.00161482 0)
(-0.0440514 -0.00455531 0)
(-0.0434729 -0.0111385 0)
(-0.0415938 -0.018059 0)
(-0.0381731 -0.0251222 0)
(-0.03298 -0.031897 0)
(-0.0258993 -0.0374722 0)
(-0.01714 -0.0399437 0)
(-0.00791259 -0.0355181 0)
(-0.00170658 -0.0180255 0)
(-0.00134915 0.0175187 0)
(-0.00603239 0.0338762 0)
(-0.0130205 0.038518 0)
(-0.0200583 0.0378076 0)
(-0.0265197 0.0349072 0)
(-0.0323016 0.0309675 0)
(-0.0373604 0.0263619 0)
(-0.0416763 0.0212213 0)
(-0.0452386 0.0155922 0)
(-0.0480245 0.00947582 0)
(-0.0499794 0.00284162 0)
(-0.0509989 -0.00436005 0)
(-0.050901 -0.0121757 0)
(-0.049405 -0.0205986 0)
(-0.0461299 -0.0294802 0)
(-0.0406366 -0.0383459 0)
(-0.0325632 -0.0460218 0)
(-0.0219516 -0.0499088 0)
(-0.010264 -0.0448556 0)
(-0.00221641 -0.0228161 0)
(-0.00160623 0.0211175 0)
(-0.00710299 0.0406307 0)
(-0.0152068 0.0459833 0)
(-0.0232514 0.0449547 0)
(-0.030537 0.0413966 0)
(-0.0369957 0.036704 0)
(-0.0426271 0.0313272 0)
(-0.0474571 0.0254196 0)
(-0.0515214 0.0190254 0)
(-0.0548408 0.0121222 0)
(-0.0573966 0.00463204 0)
(-0.0591036 -0.00357039 0)
(-0.0597657 -0.0126378 0)
(-0.0590285 -0.0226978 0)
(-0.0563386 -0.0337373 0)
(-0.0509443 -0.0453292 0)
(-0.0420302 -0.0560458 0)
(-0.0291901 -0.0623453 0)
(-0.0140217 -0.0570172 0)
(-0.00307057 -0.0291578 0)
(-0.00195736 0.0254032 0)
(-0.00850356 0.0485555 0)
(-0.017979 0.0545973 0)
(-0.0271897 0.0530671 0)
(-0.035367 0.0486649 0)
(-0.0425129 0.0430752 0)
(-0.0486974 0.036836 0)
(-0.0540148 0.0301262 0)
(-0.0585694 0.0229872 0)
(-0.0624506 0.0153691 0)
(-0.065706 0.00713728 0)
(-0.0683088 -0.00193045 0)
(-0.0700933 -0.0121392 0)
(-0.0706727 -0.0238396 0)
(-0.0693265 -0.0373042 0)
(-0.0648873 -0.0523623 0)
(-0.0557728 -0.0674934 0)
(-0.0405711 -0.0779975 0)
(-0.0205377 -0.0734849 0)
(-0.00468804 -0.0381568 0)
(-0.00246387 0.0306171 0)
(-0.0104029 0.05797 0)
(-0.0215755 0.0645797 0)
(-0.03211 0.0622476 0)
(-0.0412005 0.0567318 0)
(-0.0489807 0.0500516 0)
(-0.0556288 0.0428367 0)
(-0.0613336 0.0352917 0)
(-0.066293 0.0274559 0)
(-0.0706931 0.0192539 0)
(-0.0746864 0.0104943 0)
(-0.0783605 0.000848986 0)
(-0.0816645 -0.0101713 0)
(-0.0842875 -0.0232372 0)
(-0.0854447 -0.0391203 0)
(-0.0835301 -0.058306 0)
(-0.0758061 -0.0796955 0)
(-0.0588978 -0.0975299 0)
(-0.0325062 -0.0966946 0)
(-0.00803392 -0.0521969 0)
(-0.00324518 0.0371493 0)
(-0.0130994 0.0693222 0)
(-0.0263791 0.0761767 0)
(-0.0383551 0.0725563 0)
(-0.0482816 0.0655447 0)
(-0.0565307 0.05752 0)
(-0.0634353 0.049189 0)
(-0.0693051 0.0407741 0)
(-0.0744533 0.0323138 0)
(-0.0791874 0.0237166 0)
(-0.0838026 0.0147518 0)
(-0.0885636 0.00500715 0)
(-0.093651 -0.00618597 0)
(-0.0990256 -0.0198748 0)
(-0.104111 -0.0375511 0)
(-0.107074 -0.0609816 0)
(-0.103706 -0.090587 0)
(-0.0873492 -0.120505 0)
(-0.0539882 -0.129539 0)
(-0.0148476 -0.0755681 0)
(-0.00453989 0.04568 0)
(-0.0171304 0.0832528 0)
(-0.0329956 0.0896189 0)
(-0.0463727 0.0839373 0)
(-0.0568263 0.0749092 0)
(-0.0651429 0.0652186 0)
(-0.0718598 0.0555974 0)
(-0.077428 0.0462653 0)
(-0.0822889 0.037259 0)
(-0.0868813 0.0284867 0)
(-0.0916566 0.0197164 0)
(-0.097095 0.0105173 0)
(-0.103702 0.000116332 0)
(-0.111916 -0.0128762 0)
(-0.12181 -0.0307717 0)
(-0.131902 -0.0573503 0)
(-0.136584 -0.096325 0)
(-0.124842 -0.144176 0)
(-0.0867539 -0.173924 0)
(-0.0265343 -0.114869 0)
(-0.00684163 0.057518 0)
(-0.0234753 0.100658 0)
(-0.0423063 0.104953 0)
(-0.0564735 0.0960227 0)
(-0.0664846 0.0842954 0)
(-0.073822 0.0725361 0)
(-0.079277 0.0613999 0)
(-0.0834654 0.0510719 0)
(-0.0869639 0.0415778 0)
(-0.0903226 0.0328318 0)
(-0.0941032 0.0246393 0)
(-0.0989427 0.0166443 0)
(-0.105628 0.00814446 0)
(-0.115027 -0.00240462 0)
(-0.128164 -0.0184132 0)
(-0.144788 -0.045967 0)
(-0.158948 -0.0944985 0)
(-0.156091 -0.167101 0)
(-0.120674 -0.233918 0)
(-0.0394589 -0.184549 0)
(-0.0112642 0.0752345 0)
(-0.033939 0.122458 0)
(-0.0550603 0.121404 0)
(-0.0671731 0.107388 0)
(-0.0735189 0.0919779 0)
(-0.0767654 0.0776307 0)
(-0.0780486 0.0647583 0)
(-0.0782002 0.0534237 0)
(-0.0779195 0.0435732 0)
(-0.0777858 0.035073 0)
(-0.0783137 0.0277451 0)
(-0.0800404 0.021342 0)
(-0.0836795 0.015366 0)
(-0.0903583 0.00838901 0)
(-0.10137 -0.00367338 0)
(-0.118279 -0.030376 0)
(-0.138029 -0.0877465 0)
(-0.146741 -0.190041 0)
(-0.128564 -0.310202 0)
(-0.0392494 -0.299755 0)
(-0.020645 0.101978 0)
(-0.0517916 0.148071 0)
(-0.0675556 0.134539 0)
(-0.0652397 0.11153 0)
(-0.0574858 0.0913806 0)
(-0.0481527 0.0746333 0)
(-0.0384451 0.0606912 0)
(-0.0291507 0.0491848 0)
(-0.0207923 0.0397814 0)
(-0.0136655 0.0321652 0)
(-0.00792934 0.026093 0)
(-0.00366557 0.0213586 0)
(-0.0010572 0.0176765 0)
(-0.000510084 0.0139478 0)
(-0.00381586 0.0066388 0)
(-0.0136624 -0.0150613 0)
(-0.0325444 -0.071933 0)
(-0.0536867 -0.189904 0)
(-0.0741899 -0.355283 0)
(-0.00198127 -0.407452 0)
(-0.0614659 0.179019 0)
(-0.0693151 0.159783 0)
(-0.0212381 0.112919 0)
(0.0256849 0.0869864 0)
(0.0652162 0.0688966 0)
(0.0986809 0.0543257 0)
(0.126832 0.0426819 0)
(0.15026 0.0336668 0)
(0.169568 0.0267598 0)
(0.1854 0.021467 0)
(0.198309 0.0174823 0)
(0.208909 0.0145915 0)
(0.21739 0.012731 0)
(0.224223 0.0113316 0)
(0.227564 0.00887744 0)
(0.224467 -0.000862706 0)
(0.205596 -0.0325 0)
(0.174254 -0.119174 0)
(0.0955257 -0.27517 0)
(0.1066 -0.372352 0)
(0.215164 0.131988 0)
(0.260974 0.110995 0)
(0.362391 0.0781254 0)
(0.445441 0.0568535 0)
(0.503912 0.0427829 0)
(0.546501 0.0323681 0)
(0.578993 0.0243859 0)
(0.604191 0.0183398 0)
(0.623767 0.0138368 0)
(0.639132 0.0105103 0)
(0.651214 0.00810883 0)
(0.661233 0.00638744 0)
(0.668983 0.00528086 0)
(0.676332 0.00451829 0)
(0.678833 0.0037543 0)
(0.679943 0.00170119 0)
(0.656994 -0.00530686 0)
(0.619368 -0.0223168 0)
(0.481937 -0.0673645 0)
(0.364232 -0.131149 0)
)
;

boundaryField
{
    movingWall
    {
        type            fixedValue;
        value           uniform (1 0 0);
    }
    fixedWalls
    {
        type            noSlip;
    }
    frontAndBack
    {
        type            empty;
    }
}


// ************************************************************************* //
