/*--------------------------------*- C++ -*----------------------------------*\
  =========                 |
  \\      /  F ield         | OpenFOAM: The Open Source CFD Toolbox
   \\    /   O peration     | Website:  https://openfoam.org
    \\  /    A nd           | Version:  7
     \\/     M anipulation  |
\*---------------------------------------------------------------------------*/
FoamFile
{
    version     2.0;
    format      ascii;
    class       volScalarField;
    location    "0.2";
    object      p;
}
// * * * * * * * * * * * * * * * * * * * * * * * * * * * * * * * * * * * * * //

dimensions      [0 2 -2 0 0 0 0];

internalField   nonuniform List<scalar> 
400
(
1.80578e-08
-0.000445365
-0.000750878
-0.00104201
-0.0013171
-0.00155731
-0.0017249
-0.00177054
-0.00163244
-0.00122721
-0.000435004
0.000921744
0.00310526
0.00648879
0.011554
0.0187428
0.0279179
0.0373993
0.0436142
0.04342
9.11956e-05
-0.000302283
-0.000570706
-0.000852769
-0.00112902
-0.00137169
-0.0015402
-0.00158406
-0.00144054
-0.0010258
-0.000221497
0.00114335
0.0033141
0.00663151
0.0115352
0.0184545
0.0273258
0.0366154
0.0428454
0.0427658
0.000213043
-0.000181035
-0.00042339
-0.000701856
-0.000985726
-0.00124035
-0.00142235
-0.00148088
-0.00135453
-0.000962835
-0.000194538
0.00110778
0.00316685
0.00629412
0.0109181
0.0175473
0.0263302
0.0359116
0.0425798
0.0426115
0.000333253
-9.42264e-05
-0.000323162
-0.000605154
-0.000903612
-0.00117893
-0.00138559
-0.00147355
-0.00138504
-0.0010469
-0.000361024
0.000808265
0.00265237
0.00544893
0.00962745
0.0158374
0.0245858
0.0348072
0.0423584
0.0429027
0.000412839
-5.8085e-05
-0.000281826
-0.000573803
-0.000892381
-0.00119431
-0.00143298
-0.00156048
-0.00152482
-0.00126377
-0.000698311
0.000276437
0.00180804
0.00412379
0.00763526
0.0131494
0.0216756
0.0326715
0.0415577
0.0434395
0.000415598
-9.93038e-05
-0.000322256
-0.000628002
-0.000969154
-0.00129997
-0.00157395
-0.00174672
-0.00177401
-0.0016078
-0.00119375
-0.000467235
0.000659597
0.00233463
0.00489839
0.0092773
0.0171276
0.0287866
0.0394581
0.0439047
0.000311146
-0.000244576
-0.000466601
-0.000785429
-0.00114734
-0.00150517
-0.00181366
-0.00203312
-0.00212857
-0.00206888
-0.00182945
-0.00139548
-0.000758266
0.00010891
0.00138864
0.00403258
0.010467
0.022374
0.0351932
0.0437255
7.35604e-05
-0.000517385
-0.000732257
-0.00105778
-0.00143376
-0.00181245
-0.00215057
-0.00241373
-0.00257723
-0.00262862
-0.00257716
-0.00246696
-0.00239018
-0.00249106
-0.00285019
-0.00262155
0.00146064
0.0129215
0.0280263
0.0421815
-0.000321379
-0.00093898
-0.00113268
-0.00145207
-0.00183035
-0.00221957
-0.00257848
-0.00287794
-0.0031035
-0.0032621
-0.00339945
-0.0036257
-0.00415425
-0.00534656
-0.00764005
-0.0104245
-0.00961149
0.000585295
0.0178054
0.0387097
-0.00089982
-0.00153022
-0.00167866
-0.00197197
-0.00233569
-0.00272123
-0.00308841
-0.0034123
-0.00368768
-0.0039399
-0.0042517
-0.00480237
-0.0059405
-0.00827242
-0.0126396
-0.01875
-0.0218472
-0.0136124
0.00526
0.0333054
-0.00169455
-0.00231357
-0.00237902
-0.00261834
-0.00294558
-0.00330963
-0.00366933
-0.00400167
-0.00430846
-0.00463057
-0.00508589
-0.00592005
-0.00762029
-0.0110343
-0.0173848
-0.0266871
-0.0338266
-0.0278909
-0.00796373
0.0268983
-0.00275163
-0.00331497
-0.00324025
-0.00338846
-0.00365213
-0.00397377
-0.00430767
-0.00462929
-0.00494419
-0.00530383
-0.00585722
-0.00690681
-0.00907036
-0.0133971
-0.0214016
-0.0332714
-0.0439571
-0.0401453
-0.0196653
0.0216546
-0.00414052
-0.00456514
-0.00426454
-0.00427341
-0.00444101
-0.00469664
-0.00498489
-0.00527513
-0.00557308
-0.00593387
-0.00653288
-0.00771303
-0.0102068
-0.0151918
-0.0243478
-0.0377794
-0.0509667
-0.0485499
-0.0277983
0.0209919
-0.00597144
-0.00609908
-0.00544445
-0.00525204
-0.00528505
-0.00544867
-0.00567127
-0.00591059
-0.00616981
-0.00649928
-0.00709803
-0.00832629
-0.0110155
-0.0163721
-0.0261214
-0.0399891
-0.0542745
-0.0519869
-0.0307606
0.0289085
-0.00842805
-0.00794986
-0.00675098
-0.00627829
-0.00613159
-0.00617518
-0.00631372
-0.00648696
-0.00669538
-0.00697488
-0.00755156
-0.00877038
-0.0115573
-0.0170304
-0.026889
-0.0404117
-0.0537132
-0.0500325
-0.0261998
0.0485044
-0.0118416
-0.0101257
-0.00811156
-0.00725969
-0.00688192
-0.00677759
-0.00681899
-0.00691997
-0.00708158
-0.00731486
-0.00788536
-0.00907842
-0.0119285
-0.0173487
-0.0269184
-0.0391933
-0.0499604
-0.0422799
-0.0105311
0.0817076
-0.0168681
-0.0125623
-0.00939366
-0.00802935
-0.00736586
-0.00709715
-0.00704455
-0.00708491
-0.00722531
-0.00744164
-0.00804345
-0.00927404
-0.0122064
-0.0174852
-0.026473
-0.0367358
-0.0434093
-0.0280427
0.0180966
0.132584
-0.0247665
-0.0150623
-0.010309
-0.00823567
-0.0072762
-0.00688407
-0.00679052
-0.00682479
-0.00700029
-0.00725915
-0.00796527
-0.00929923
-0.0123764
-0.0174949
-0.0257411
-0.0334127
-0.0346112
-0.00786963
0.0595694
0.205351
-0.0366135
-0.0163449
-0.00907968
-0.00677844
-0.00591707
-0.0056488
-0.00571648
-0.00590594
-0.00623277
-0.00663573
-0.00751931
-0.00903229
-0.0122942
-0.0172831
-0.0248131
-0.0298423
-0.0253654
0.0144822
0.107948
0.296368
-0.0581154
-0.00892956
-0.00132815
-0.00206235
-0.00251116
-0.00294772
-0.00356946
-0.0041911
-0.00484172
-0.00551853
-0.00663556
-0.00838001
-0.0118081
-0.0167333
-0.0237489
-0.0269131
-0.0190699
0.0300705
0.14569
0.380386
)
;

boundaryField
{
    movingWall
    {
        type            zeroGradient;
    }
    fixedWalls
    {
        type            zeroGradient;
    }
    frontAndBack
    {
        type            empty;
    }
}


// ************************************************************************* //
