/*--------------------------------*- C++ -*----------------------------------*\
  =========                 |
  \\      /  F ield         | OpenFOAM: The Open Source CFD Toolbox
   \\    /   O peration     | Website:  https://openfoam.org
    \\  /    A nd           | Version:  7
     \\/     M anipulation  |
\*---------------------------------------------------------------------------*/
FoamFile
{
    version     2.0;
    format      ascii;
    class       surfaceScalarField;
    location    "0.2";
    object      phi;
}
// * * * * * * * * * * * * * * * * * * * * * * * * * * * * * * * * * * * * * //

dimensions      [0 3 -1 0 0 0 0];

internalField   nonuniform List<scalar> 
760
(
3.18882e-10
-3.20246e-10
-3.84561e-08
3.8775e-08
-8.91114e-08
5.06556e-08
-1.41342e-07
5.22309e-08
-1.94269e-07
5.29265e-08
-2.49075e-07
5.48065e-08
-3.07075e-07
5.80002e-08
-3.69944e-07
6.28679e-08
-4.40207e-07
7.02633e-08
-5.21571e-07
8.13634e-08
-6.18916e-07
9.73455e-08
-7.37506e-07
1.1859e-07
-8.80391e-07
1.42885e-07
-1.04212e-06
1.61728e-07
-1.19574e-06
1.53621e-07
-1.27403e-06
7.8291e-08
-1.16667e-06
-1.07365e-07
-7.89124e-07
-3.77542e-07
-2.52343e-07
-5.36781e-07
-2.52343e-07
-3.40381e-08
3.37178e-08
-1.50671e-07
1.55408e-07
-2.94526e-07
1.94512e-07
-4.42538e-07
2.00243e-07
-5.90053e-07
2.00441e-07
-7.38267e-07
2.0302e-07
-8.89659e-07
2.09392e-07
-1.04778e-06
2.20985e-07
-1.21782e-06
2.40306e-07
-1.40693e-06
2.70473e-07
-1.62354e-06
3.13962e-07
-1.87469e-06
3.69741e-07
-2.15931e-06
4.27499e-07
-2.45512e-06
4.57535e-07
-2.69764e-06
3.96147e-07
-2.75968e-06
1.4033e-07
-2.46148e-06
-4.05567e-07
-1.68817e-06
-1.15085e-06
-6.34744e-07
-1.59021e-06
-8.87086e-07
-8.14118e-08
1.1513e-07
-2.70991e-07
3.44987e-07
-4.96119e-07
4.1964e-07
-7.24588e-07
4.28712e-07
-9.48631e-07
4.24484e-07
-1.16884e-06
4.23229e-07
-1.38816e-06
4.28714e-07
-1.61118e-06
4.44005e-07
-1.8445e-06
4.7362e-07
-2.09674e-06
5.22717e-07
-2.37741e-06
5.94631e-07
-2.69306e-06
6.85393e-07
-3.03893e-06
7.73374e-07
-3.3842e-06
8.02797e-07
-3.65056e-06
6.62509e-07
-3.69132e-06
1.81088e-07
-3.30027e-06
-7.96609e-07
-2.32732e-06
-2.1238e-06
-9.51016e-07
-2.96651e-06
-1.8381e-06
-1.27458e-07
2.42588e-07
-3.82411e-07
5.9994e-07
-6.74491e-07
7.11721e-07
-9.6565e-07
7.19871e-07
-1.24633e-06
7.0516e-07
-1.51677e-06
6.93674e-07
-1.78026e-06
6.92205e-07
-2.04207e-06
7.05808e-07
-2.3096e-06
7.41156e-07
-2.59239e-06
8.05506e-07
-2.90087e-06
9.03109e-07
-3.24273e-06
1.02725e-06
-3.61499e-06
1.14564e-06
-3.99009e-06
1.1779e-06
-4.29433e-06
9.66752e-07
-4.37831e-06
2.65059e-07
-4.00519e-06
-1.16973e-06
-2.94658e-06
-3.18241e-06
-1.29524e-06
-4.61786e-06
-3.13334e-06
-1.6738e-07
4.09968e-07
-4.77449e-07
9.10009e-07
-8.21972e-07
1.05625e-06
-1.15883e-06
1.05673e-06
-1.47795e-06
1.02428e-06
-1.77981e-06
9.95534e-07
-2.06814e-06
9.80532e-07
-2.34875e-06
9.86424e-07
-2.62972e-06
1.02212e-06
-2.92153e-06
1.09731e-06
-3.23654e-06
1.21812e-06
-3.58656e-06
1.37727e-06
-3.97659e-06
1.53566e-06
-4.39201e-06
1.59332e-06
-4.77385e-06
1.34859e-06
-4.97265e-06
4.63856e-07
-4.70413e-06
-1.43824e-06
-3.62705e-06
-4.2595e-06
-1.71114e-06
-6.53376e-06
-4.84448e-06
-2.00618e-07
6.10586e-07
-5.55636e-07
1.26503e-06
-9.39677e-07
1.44029e-06
-1.30783e-06
1.42488e-06
-1.65062e-06
1.36707e-06
-1.96929e-06
1.3142e-06
-2.26816e-06
1.2794e-06
-2.55353e-06
1.2718e-06
-2.83402e-06
1.30261e-06
-3.12129e-06
1.38458e-06
-3.43069e-06
1.52753e-06
-3.78067e-06
1.72725e-06
-4.18859e-06
1.94358e-06
-4.65791e-06
2.06265e-06
-5.14678e-06
1.83746e-06
-5.50038e-06
8.1746e-07
-5.3779e-06
-1.56072e-06
-4.32049e-06
-5.3169e-06
-2.17505e-06
-8.67921e-06
-7.01953e-06
-2.28793e-07
8.3938e-07
-6.20572e-07
1.65681e-06
-1.03379e-06
1.85351e-06
-1.42204e-06
1.81313e-06
-1.77739e-06
1.72242e-06
-2.10231e-06
1.63912e-06
-2.4018e-06
1.5789e-06
-2.68247e-06
1.55246e-06
-2.95324e-06
1.57338e-06
-3.22687e-06
1.65822e-06
-3.52201e-06
1.82267e-06
-3.86462e-06
2.06986e-06
-4.2856e-06
2.36456e-06
-4.80628e-06
2.58333e-06
-5.39778e-06
2.42896e-06
-5.89621e-06
1.3159e-06
-5.91327e-06
-1.54367e-06
-4.90668e-06
-6.32349e-06
-2.6258e-06
-1.09601e-05
-9.64532e-06
-2.54609e-07
1.09399e-06
-6.77748e-07
2.07995e-06
-1.1125e-06
2.28826e-06
-1.5125e-06
2.21314e-06
-1.87235e-06
2.08226e-06
-2.19612e-06
1.96289e-06
-2.48944e-06
1.87221e-06
-2.7589e-06
1.82193e-06
-3.01328e-06
1.82776e-06
-3.26574e-06
1.91068e-06
-3.5373e-06
2.09424e-06
-3.85999e-06
2.39255e-06
-4.27576e-06
2.78033e-06
-4.81913e-06
3.1267e-06
-5.46829e-06
3.07812e-06
-6.05397e-06
1.90157e-06
-6.17569e-06
-1.42195e-06
-5.26522e-06
-7.23395e-06
-2.99083e-06
-1.32345e-05
-1.26362e-05
-2.81244e-07
1.37523e-06
-7.33198e-07
2.5319e-06
-1.184e-06
2.73906e-06
-1.58944e-06
2.61858e-06
-1.94772e-06
2.44054e-06
-2.26487e-06
2.28004e-06
-2.547e-06
2.15435e-06
-2.8003e-06
2.07522e-06
-3.03258e-06
2.06004e-06
-3.25609e-06
2.13418e-06
-3.49194e-06
2.33009e-06
-3.77442e-06
2.67503e-06
-4.15105e-06
3.15696e-06
-4.66286e-06
3.6385e-06
-5.29239e-06
3.70765e-06
-5.88083e-06
2.49002e-06
-6.06754e-06
-1.23525e-06
-5.31645e-06
-7.98503e-06
-3.20919e-06
-1.53418e-05
-1.58453e-05
-3.12177e-07
1.68741e-06
-7.92883e-07
3.01261e-06
-1.2555e-06
3.20167e-06
-1.66091e-06
3.02399e-06
-2.01231e-06
2.79194e-06
-2.31797e-06
2.5857e-06
-2.58436e-06
2.42074e-06
-2.81678e-06
2.30764e-06
-3.02119e-06
2.26444e-06
-3.20704e-06
2.32004e-06
-3.39228e-06
2.51532e-06
-3.6079e-06
2.89066e-06
-3.89987e-06
3.44892e-06
-4.30982e-06
4.04844e-06
-4.82825e-06
4.22609e-06
-5.33045e-06
2.99222e-06
-5.55037e-06
-1.01533e-06
-5.02631e-06
-8.50909e-06
-3.23055e-06
-1.71375e-05
-1.90759e-05
-3.51357e-07
2.03877e-06
-8.6257e-07
3.52382e-06
-1.33269e-06
3.67179e-06
-1.73201e-06
3.42331e-06
-2.07039e-06
3.13033e-06
-2.35872e-06
2.87403e-06
-2.60375e-06
2.66577e-06
-2.80955e-06
2.51344e-06
-2.97945e-06
2.43435e-06
-3.11828e-06
2.45887e-06
-3.2372e-06
2.63424e-06
-3.35781e-06
3.01127e-06
-3.51728e-06
3.60839e-06
-3.75378e-06
4.28495e-06
-4.07501e-06
4.54731e-06
-4.41296e-06
3.33017e-06
-4.64236e-06
-7.85938e-07
-4.40371e-06
-8.74773e-06
-3.03114e-06
-1.85101e-05
-2.2107e-05
-4.03682e-07
2.44245e-06
-9.47933e-07
4.06807e-06
-1.41928e-06
4.14314e-06
-1.8038e-06
3.80783e-06
-2.12005e-06
3.44657e-06
-2.38192e-06
3.1359e-06
-2.59669e-06
2.88054e-06
-2.76727e-06
2.68403e-06
-2.89419e-06
2.56127e-06
-2.97639e-06
2.54107e-06
-3.01569e-06
2.67354e-06
-3.01885e-06
3.01442e-06
-3.00819e-06
3.59774e-06
-3.01469e-06
4.29145e-06
-3.07432e-06
4.60694e-06
-3.18963e-06
3.44548e-06
-3.40458e-06
-5.70992e-07
-3.48564e-06
-8.66667e-06
-2.62191e-06
-1.93738e-05
-2.47289e-05
-4.75806e-07
2.91825e-06
-1.05459e-06
4.64686e-06
-1.51586e-06
4.6044e-06
-1.8709e-06
4.16288e-06
-2.14927e-06
3.72494e-06
-2.36862e-06
3.35525e-06
-2.53744e-06
3.04936e-06
-2.6583e-06
2.80489e-06
-2.72979e-06
2.63276e-06
-2.74519e-06
2.55647e-06
-2.69663e-06
2.62498e-06
-2.57303e-06
2.89082e-06
-2.378e-06
3.40271e-06
-2.12946e-06
4.0429e-06
-1.89795e-06
4.37543e-06
-1.76162e-06
3.30916e-06
-1.92484e-06
-4.07777e-07
-2.30814e-06
-8.28336e-06
-2.02693e-06
-1.9655e-05
-2.67559e-05
-5.77492e-07
3.49575e-06
-1.18756e-06
5.25692e-06
-1.61683e-06
5.03367e-06
-1.91561e-06
4.46166e-06
-2.1275e-06
3.93683e-06
-2.27521e-06
3.50296e-06
-2.37014e-06
3.14428e-06
-2.41612e-06
2.85087e-06
-2.41198e-06
2.62862e-06
-2.34727e-06
2.49176e-06
-2.20733e-06
2.48504e-06
-1.96402e-06
2.64751e-06
-1.60246e-06
3.04115e-06
-1.11947e-06
3.55991e-06
-6.14744e-07
3.87071e-06
-2.74364e-07
2.96878e-06
-3.04409e-07
-3.77731e-07
-9.29557e-07
-7.65821e-06
-1.21217e-06
-1.93724e-05
-2.7968e-05
-7.24036e-07
4.21978e-06
-1.34846e-06
5.88134e-06
-1.70171e-06
5.38693e-06
-1.89345e-06
4.6534e-06
-1.98656e-06
4.02994e-06
-2.01152e-06
3.52792e-06
-1.98521e-06
3.11797e-06
-1.91484e-06
2.7805e-06
-1.80221e-06
2.51599e-06
-1.63604e-06
2.32559e-06
-1.40041e-06
2.24941e-06
-1.05512e-06
2.30222e-06
-5.72005e-07
2.55804e-06
7.655e-08
2.91136e-06
7.91076e-07
3.15618e-06
1.35451e-06
2.40535e-06
1.42811e-06
-4.51334e-07
5.70519e-07
-6.80062e-06
-7.64128e-08
-1.87255e-05
-2.80445e-05
-9.38882e-07
5.15866e-06
-1.52385e-06
6.46631e-06
-1.70818e-06
5.57125e-06
-1.6944e-06
4.63961e-06
-1.57624e-06
3.91178e-06
-1.39552e-06
3.3472e-06
-1.17633e-06
2.89878e-06
-9.29883e-07
2.53405e-06
-6.61844e-07
2.24795e-06
-3.62071e-07
2.02582e-06
-1.58734e-08
1.90321e-06
4.15557e-07
1.87079e-06
9.67157e-07
2.00644e-06
1.68607e-06
2.19245e-06
2.50519e-06
2.33706e-06
3.19181e-06
1.71872e-06
3.37341e-06
-6.32929e-07
2.5205e-06
-5.94771e-06
1.02943e-06
-1.72344e-05
-2.7015e-05
-1.24727e-06
6.40593e-06
-1.63148e-06
6.85052e-06
-1.43685e-06
5.37662e-06
-1.03145e-06
4.23421e-06
-5.5626e-07
3.4366e-06
-5.79132e-08
2.84886e-06
4.39596e-07
2.40127e-06
9.25619e-07
2.04803e-06
1.39564e-06
1.77793e-06
1.85933e-06
1.56213e-06
2.32866e-06
1.43388e-06
2.84102e-06
1.35843e-06
3.43038e-06
1.41708e-06
4.14041e-06
1.48242e-06
4.94784e-06
1.52963e-06
5.61429e-06
1.05227e-06
5.79276e-06
-8.11404e-07
4.78862e-06
-4.94356e-06
2.34657e-06
-1.47924e-05
-2.46685e-05
-1.5874e-06
7.99333e-06
-1.25492e-06
6.51804e-06
-2.14763e-07
4.33647e-06
8.55804e-07
3.16364e-06
1.83887e-06
2.45353e-06
2.73808e-06
1.94964e-06
3.55436e-06
1.58499e-06
4.29223e-06
1.31017e-06
4.9612e-06
1.10895e-06
5.57438e-06
9.48953e-07
6.15301e-06
8.5525e-07
6.7224e-06
7.89043e-07
7.32709e-06
8.1239e-07
7.98081e-06
8.28702e-07
8.69704e-06
8.13396e-07
9.23894e-06
5.10371e-07
9.23439e-06
-8.0686e-07
7.87945e-06
-3.58861e-06
4.27333e-06
-1.11863e-05
-2.03951e-05
-1.0821e-06
9.07543e-06
1.64858e-06
3.78736e-06
3.96868e-06
2.01637e-06
5.71205e-06
1.42027e-06
7.11741e-06
1.04817e-06
8.28555e-06
7.81512e-07
9.2687e-06
6.01829e-07
1.01029e-05
4.76019e-07
1.08227e-05
3.89059e-07
1.14486e-05
3.23116e-07
1.2017e-05
2.86782e-07
1.25427e-05
2.63343e-07
1.30826e-05
2.72536e-07
1.36285e-05
2.82785e-07
1.41894e-05
2.52465e-07
1.4565e-05
1.3477e-07
1.4251e-05
-4.92816e-07
1.24313e-05
-1.76892e-06
7.26013e-06
-6.01509e-06
-1.3135e-05
9.07543e-06
1.28628e-05
1.48792e-05
1.62994e-05
1.73476e-05
1.81291e-05
1.87309e-05
1.9207e-05
1.9596e-05
1.99191e-05
2.02059e-05
2.04693e-05
2.07418e-05
2.10246e-05
2.12771e-05
2.14118e-05
2.0919e-05
1.91501e-05
1.3135e-05
)
;

boundaryField
{
    movingWall
    {
        type            calculated;
        value           uniform 0;
    }
    fixedWalls
    {
        type            calculated;
        value           uniform 0;
    }
    frontAndBack
    {
        type            empty;
        value           nonuniform 0();
    }
}


// ************************************************************************* //
