/*--------------------------------*- C++ -*----------------------------------*\
  =========                 |
  \\      /  F ield         | OpenFOAM: The Open Source CFD Toolbox
   \\    /   O peration     | Website:  https://openfoam.org
    \\  /    A nd           | Version:  7
     \\/     M anipulation  |
\*---------------------------------------------------------------------------*/
FoamFile
{
    version     2.0;
    format      ascii;
    class       volVectorField;
    location    "0.2";
    object      U;
}
// * * * * * * * * * * * * * * * * * * * * * * * * * * * * * * * * * * * * * //

dimensions      [0 1 -1 0 0 0 0];

internalField   nonuniform List<vector> 
400
(
(0.0002879 -0.000106799 0)
(-0.000446402 0.000221317 0)
(-0.00251996 0.000311476 0)
(-0.00461171 0.000322554 0)
(-0.00671432 0.000333792 0)
(-0.00886224 0.000358317 0)
(-0.0111088 0.000394495 0)
(-0.0135126 0.000444391 0)
(-0.0161559 0.000515269 0)
(-0.0191632 0.000618268 0)
(-0.0227111 0.000766619 0)
(-0.027017 0.000970495 0)
(-0.0322812 0.00122343 0)
(-0.03852 0.00146956 0)
(-0.0451657 0.0015336 0)
(-0.050339 0.00103775 0)
(-0.0502439 -0.000482495 0)
(-0.040359 -0.00288879 0)
(-0.0203425 -0.00438206 0)
(-0.00390145 -0.00185351 0)
(-0.000128676 0.000129677 0)
(-0.00305212 0.00158686 0)
(-0.00882686 0.00204536 0)
(-0.0147625 0.00211646 0)
(-0.0206786 0.00214019 0)
(-0.0265787 0.00220173 0)
(-0.0325472 0.00231116 0)
(-0.0387036 0.00248349 0)
(-0.0452197 0.00275023 0)
(-0.0523445 0.0031537 0)
(-0.0604049 0.00373384 0)
(-0.0697515 0.00449642 0)
(-0.080591 0.00534362 0)
(-0.0926029 0.00593973 0)
(-0.104201 0.00549069 0)
(-0.11146 0.00259325 0)
(-0.10764 -0.00411421 0)
(-0.0857014 -0.0136147 0)
(-0.045931 -0.0191789 0)
(-0.0103833 -0.00989066 0)
(-0.00088372 0.00128768 0)
(-0.00618607 0.00466153 0)
(-0.0152578 0.00577176 0)
(-0.0244739 0.00593355 0)
(-0.0335397 0.00591849 0)
(-0.0424073 0.00595783 0)
(-0.051165 0.00609955 0)
(-0.0599645 0.00638656 0)
(-0.0690274 0.00688787 0)
(-0.0786632 0.00768609 0)
(-0.0892571 0.00884123 0)
(-0.101186 0.010309 0)
(-0.114599 0.0117811 0)
(-0.128961 0.0124213 0)
(-0.142256 0.0105115 0)
(-0.14985 0.0033342 0)
(-0.143961 -0.0114434 0)
(-0.116236 -0.0314738 0)
(-0.0659929 -0.0435275 0)
(-0.0160634 -0.0255264 0)
(-0.00166346 0.00340297 0)
(-0.00919429 0.00917714 0)
(-0.0210865 0.0110416 0)
(-0.0329232 0.0112404 0)
(-0.0443816 0.0110823 0)
(-0.0553838 0.0109856 0)
(-0.0660222 0.0110539 0)
(-0.0764713 0.0113676 0)
(-0.0869834 0.012038 0)
(-0.097902 0.0131883 0)
(-0.109649 0.0148918 0)
(-0.122642 0.0170362 0)
(-0.137089 0.0190731 0)
(-0.152567 0.0196336 0)
(-0.167275 0.0160519 0)
(-0.176692 0.00420416 0)
(-0.172376 -0.0195899 0)
(-0.14378 -0.0522125 0)
(-0.0873094 -0.0738853 0)
(-0.0223349 -0.0476473 0)
(-0.00235001 0.00637987 0)
(-0.0118054 0.0148851 0)
(-0.026003 0.0174817 0)
(-0.039812 0.0176016 0)
(-0.0529515 0.0171633 0)
(-0.0653452 0.0167916 0)
(-0.0771016 0.0166548 0)
(-0.0884155 0.0168748 0)
(-0.0995621 0.017607 0)
(-0.110913 0.0190177 0)
(-0.122938 0.0212031 0)
(-0.136165 0.0240083 0)
(-0.15103 0.0266976 0)
(-0.167551 0.0274519 0)
(-0.184618 0.0227151 0)
(-0.198222 0.00676301 0)
(-0.19892 -0.0262296 0)
(-0.172716 -0.0735974 0)
(-0.112164 -0.109334 0)
(-0.0296765 -0.0771021 0)
(-0.00292557 0.0100844 0)
(-0.0139842 0.0215787 0)
(-0.0300098 0.0248198 0)
(-0.045229 0.0247078 0)
(-0.0594581 0.0238379 0)
(-0.0726526 0.0230499 0)
(-0.0849488 0.0225771 0)
(-0.0965618 0.0225828 0)
(-0.107783 0.0232676 0)
(-0.11901 0.0248511 0)
(-0.130781 0.0274816 0)
(-0.143796 0.0310236 0)
(-0.158856 0.0346576 0)
(-0.176632 0.0362322 0)
(-0.196952 0.0313132 0)
(-0.216372 0.0121836 0)
(-0.223893 -0.0302184 0)
(-0.201426 -0.0950027 0)
(-0.13849 -0.150016 0)
(-0.037289 -0.115509 0)
(-0.00342248 0.0143942 0)
(-0.0158283 0.0290771 0)
(-0.0332955 0.0328313 0)
(-0.0494801 0.0323133 0)
(-0.0643456 0.0308592 0)
(-0.0779053 0.0295226 0)
(-0.0903328 0.0285945 0)
(-0.101859 0.0282747 0)
(-0.112782 0.0288108 0)
(-0.123516 0.0304908 0)
(-0.13467 0.0335576 0)
(-0.147136 0.0379786 0)
(-0.16212 0.0429736 0)
(-0.180988 0.046161 0)
(-0.204507 0.0421497 0)
(-0.229677 0.0207149 0)
(-0.243637 -0.0314456 0)
(-0.224772 -0.116177 0)
(-0.162039 -0.195126 0)
(-0.0437102 -0.163654 0)
(-0.00389795 0.0192326 0)
(-0.0174998 0.0372445 0)
(-0.0361319 0.0413393 0)
(-0.0529478 0.0402272 0)
(-0.0681155 0.0380408 0)
(-0.0817302 0.0360364 0)
(-0.0940069 0.034547 0)
(-0.105184 0.0337996 0)
(-0.115551 0.0340876 0)
(-0.125515 0.0357829 0)
(-0.13572 0.0392682 0)
(-0.147207 0.0446972 0)
(-0.161512 0.0514421 0)
(-0.180552 0.0569483 0)
(-0.205862 0.0547205 0)
(-0.234805 0.0315927 0)
(-0.253051 -0.0304617 0)
(-0.237274 -0.136466 0)
(-0.178955 -0.242288 0)
(-0.0474857 -0.220728 0)
(-0.00442207 0.0245837 0)
(-0.0191862 0.0460025 0)
(-0.0388068 0.0502156 0)
(-0.056001 0.0483066 0)
(-0.0712175 0.045246 0)
(-0.0846562 0.0424672 0)
(-0.0965755 0.0403215 0)
(-0.10721 0.0390479 0)
(-0.116817 0.0389795 0)
(-0.125754 0.0405798 0)
(-0.134638 0.0444043 0)
(-0.144535 0.050856 0)
(-0.157119 0.059542 0)
(-0.174596 0.0677532 0)
(-0.199038 0.0677727 0)
(-0.228374 0.0433847 0)
(-0.248024 -0.0278919 0)
(-0.235272 -0.15448 0)
(-0.186706 -0.288054 0)
(-0.047154 -0.284357 0)
(-0.00507616 0.0304983 0)
(-0.021085 0.0553276 0)
(-0.0415902 0.0593675 0)
(-0.0589466 0.0564387 0)
(-0.0739905 0.0523662 0)
(-0.0870495 0.0487172 0)
(-0.098426 0.0458281 0)
(-0.108339 0.0439278 0)
(-0.116987 0.0433752 0)
(-0.124632 0.044718 0)
(-0.131762 0.0486927 0)
(-0.139294 0.0559758 0)
(-0.148778 0.0664578 0)
(-0.16239 0.0772968 0)
(-0.182585 0.0795959 0)
(-0.208362 0.05443 0)
(-0.226702 -0.0241421 0)
(-0.217365 -0.168433 0)
(-0.183983 -0.328876 0)
(-0.0414514 -0.350983 0)
(-0.00595967 0.0371014 0)
(-0.023407 0.0652403 0)
(-0.0447222 0.0687155 0)
(-0.0620037 0.0645149 0)
(-0.0766251 0.0592937 0)
(-0.0890641 0.0546863 0)
(-0.0996701 0.0509714 0)
(-0.108638 0.0483404 0)
(-0.116092 0.0471538 0)
(-0.12215 0.0480147 0)
(-0.12707 0.0518167 0)
(-0.131428 0.0594841 0)
(-0.136367 0.0712161 0)
(-0.143734 0.0841147 0)
(-0.156301 0.0884004 0)
(-0.174746 0.063159 0)
(-0.189653 -0.0195058 0)
(-0.183999 -0.176644 0)
(-0.170759 -0.361633 0)
(-0.0300527 -0.416237 0)
(-0.00720479 0.0446061 0)
(-0.0263913 0.0757888 0)
(-0.0484069 0.0781623 0)
(-0.0652728 0.0723968 0)
(-0.0791083 0.0658861 0)
(-0.0905599 0.0602354 0)
(-0.100033 0.0556164 0)
(-0.107707 0.0521505 0)
(-0.11363 0.0501683 0)
(-0.117755 0.050277 0)
(-0.120049 0.05347 0)
(-0.12058 0.0608392 0)
(-0.119857 0.0729042 0)
(-0.119127 0.0868595 0)
(-0.121431 0.0926344 0)
(-0.129468 0.0682319 0)
(-0.139471 -0.0143942 0)
(-0.136935 -0.177943 0)
(-0.148142 -0.383974 0)
(-0.0135615 -0.475298 0)
(-0.00900016 0.0533409 0)
(-0.0303299 0.0870216 0)
(-0.0527938 0.087546 0)
(-0.0686666 0.079866 0)
(-0.0810996 0.0719116 0)
(-0.09092 0.0651296 0)
(-0.098618 0.0595329 0)
(-0.104383 0.0551397 0)
(-0.108232 0.052217 0)
(-0.109972 0.0513062 0)
(-0.109288 0.0534211 0)
(-0.105681 0.0596844 0)
(-0.0989165 0.0709314 0)
(-0.089389 0.084616 0)
(-0.0802787 0.0912413 0)
(-0.0759187 0.0686643 0)
(-0.0801256 -0.009711 0)
(-0.078655 -0.172239 0)
(-0.117463 -0.39529 0)
(0.0076416 -0.52315 0)
(-0.0116278 0.0638037 0)
(-0.0355985 0.0989356 0)
(-0.0579129 0.0965593 0)
(-0.0717327 0.0865362 0)
(-0.081641 0.0769562 0)
(-0.0886584 0.0689443 0)
(-0.0934227 0.0623076 0)
(-0.096199 0.05693 0)
(-0.0970477 0.0529869 0)
(-0.0957042 0.0508744 0)
(-0.091699 0.051549 0)
(-0.0840064 0.0559725 0)
(-0.0717973 0.0652712 0)
(-0.0543458 0.0772255 0)
(-0.0348294 0.0839535 0)
(-0.017813 0.0642577 0)
(-0.0160001 -0.00703335 0)
(-0.0121114 -0.160993 0)
(-0.0791154 -0.396867 0)
(0.0344748 -0.555158 0)
(-0.0155217 0.0767701 0)
(-0.0426857 0.111361 0)
(-0.0634573 0.104607 0)
(-0.0731817 0.0916984 0)
(-0.0784707 0.0802677 0)
(-0.0805851 0.0709225 0)
(-0.080424 0.0632219 0)
(-0.0784086 0.0568815 0)
(-0.074754 0.0519695 0)
(-0.0691864 0.0486567 0)
(-0.0613298 0.0477968 0)
(-0.049716 0.0499726 0)
(-0.0334381 0.0565609 0)
(-0.0103145 0.0655268 0)
(0.0162802 0.0714152 0)
(0.043722 0.055021 0)
(0.0502396 -0.00725132 0)
(0.0598647 -0.146517 0)
(-0.0314923 -0.388673 0)
(0.0694866 -0.568566 0)
(-0.0213542 0.0934813 0)
(-0.0521558 0.123727 0)
(-0.0680004 0.110534 0)
(-0.0695087 0.0940132 0)
(-0.0663002 0.0804934 0)
(-0.0599723 0.0697818 0)
(-0.05179 0.0611202 0)
(-0.0423346 0.0540026 0)
(-0.0320619 0.0483843 0)
(-0.0206076 0.0441424 0)
(-0.00804783 0.0420233 0)
(0.00768089 0.0421049 0)
(0.0264982 0.0459123 0)
(0.0527504 0.0512875 0)
(0.0811379 0.0553977 0)
(0.11531 0.0418768 0)
(0.122417 -0.010076 0)
(0.139553 -0.128184 0)
(0.0294301 -0.365563 0)
(0.116165 -0.562297 0)
(-0.0300779 0.115635 0)
(-0.0640172 0.134422 0)
(-0.0657004 0.111588 0)
(-0.0505955 0.0906863 0)
(-0.0323054 0.0751979 0)
(-0.0124322 0.0634628 0)
(0.00764351 0.0543068 0)
(0.0275103 0.0469384 0)
(0.0464907 0.0411885 0)
(0.0654939 0.0366197 0)
(0.0835048 0.0339082 0)
(0.103981 0.0325921 0)
(0.124091 0.0342961 0)
(0.152179 0.0365294 0)
(0.176844 0.0385314 0)
(0.214071 0.0277671 0)
(0.214678 -0.0140446 0)
(0.236731 -0.108416 0)
(0.107689 -0.323451 0)
(0.176903 -0.52792 0)
(-0.0421957 0.14299 0)
(-0.0709788 0.136479 0)
(-0.0321015 0.0992369 0)
(0.0133355 0.0760273 0)
(0.0544574 0.0605686 0)
(0.0922988 0.0492862 0)
(0.126519 0.040897 0)
(0.15782 0.0343947 0)
(0.185467 0.0294905 0)
(0.211829 0.0255373 0)
(0.234299 0.0231335 0)
(0.259226 0.0214584 0)
(0.278968 0.0220536 0)
(0.308759 0.0225486 0)
(0.325885 0.0228715 0)
(0.363523 0.015751 0)
(0.351074 -0.0150029 0)
(0.370725 -0.0807778 0)
(0.21772 -0.254012 0)
(0.260421 -0.450726 0)
(-0.0696391 0.188706 0)
(0.00691937 0.108066 0)
(0.116301 0.0646137 0)
(0.196927 0.0468103 0)
(0.258981 0.0357254 0)
(0.310071 0.0276364 0)
(0.352489 0.0218961 0)
(0.388999 0.0176882 0)
(0.419133 0.0146865 0)
(0.447137 0.012317 0)
(0.468894 0.0109427 0)
(0.493786 0.00991853 0)
(0.509672 0.0101133 0)
(0.538183 0.0103267 0)
(0.546552 0.00977729 0)
(0.580696 0.00647181 0)
(0.55429 -0.0115557 0)
(0.562407 -0.0455276 0)
(0.38436 -0.156687 0)
(0.385788 -0.314531 0)
(0.347574 0.127055 0)
(0.445884 0.0686391 0)
(0.55482 0.0357709 0)
(0.627899 0.0216159 0)
(0.6763 0.0142616 0)
(0.711676 0.00973919 0)
(0.738479 0.00689239 0)
(0.760008 0.00503663 0)
(0.776533 0.00384078 0)
(0.791489 0.00299563 0)
(0.802188 0.00252146 0)
(0.815197 0.00223009 0)
(0.822225 0.0022224 0)
(0.837775 0.00239446 0)
(0.839231 0.00204929 0)
(0.856855 0.00126861 0)
(0.829784 -0.0040429 0)
(0.821009 -0.0132765 0)
(0.665558 -0.0451589 0)
(0.608063 -0.108963 0)
)
;

boundaryField
{
    movingWall
    {
        type            fixedValue;
        value           uniform (1 0 0);
    }
    fixedWalls
    {
        type            noSlip;
    }
    frontAndBack
    {
        type            empty;
    }
}


// ************************************************************************* //
