/*--------------------------------*- C++ -*----------------------------------*\
  =========                 |
  \\      /  F ield         | OpenFOAM: The Open Source CFD Toolbox
   \\    /   O peration     | Website:  https://openfoam.org
    \\  /    A nd           | Version:  7
     \\/     M anipulation  |
\*---------------------------------------------------------------------------*/
FoamFile
{
    version     2.0;
    format      ascii;
    class       volScalarField;
    location    "0.1";
    object      p;
}
// * * * * * * * * * * * * * * * * * * * * * * * * * * * * * * * * * * * * * //

dimensions      [0 2 -2 0 0 0 0];

internalField   nonuniform List<scalar> 
400
(
-8.84606e-09
-0.0590423
-0.0862295
-0.0726994
-0.0197958
0.0631671
0.165509
0.279468
0.400378
0.526047
0.655648
0.788563
0.923795
1.05829
1.18518
1.29338
1.36836
1.39682
1.3744
1.31028
0.0126562
-0.0393805
-0.058059
-0.0424324
0.00802975
0.0862114
0.183021
0.291784
0.408351
0.530235
0.656056
0.784693
0.914634
1.04268
1.16238
1.26377
1.33448
1.36418
1.351
1.29539
0.0290938
-0.0250491
-0.0387044
-0.0212932
0.0280408
0.103295
0.196342
0.301234
0.414322
0.533052
0.655678
0.780771
0.906564
1.02992
1.14485
1.24219
1.31082
1.34194
1.33432
1.27708
0.0439681
-0.0181706
-0.029713
-0.0106484
0.0389537
0.113169
0.204286
0.306834
0.417618
0.534139
0.654432
0.777004
0.900081
1.02071
1.13336
1.22944
1.29831
1.33135
1.32635
1.26086
0.0533748
-0.0187441
-0.0290364
-0.00789013
0.0431257
0.117667
0.20819
0.309518
0.418823
0.533808
0.652398
0.773123
0.894386
1.01352
1.12551
1.22228
1.29329
1.32934
1.32638
1.25051
0.0541467
-0.028031
-0.0367608
-0.0126138
0.0410747
0.117242
0.208376
0.309535
0.418122
0.532158
0.649626
0.769078
0.889196
1.0078
1.12051
1.21974
1.2948
1.33552
1.33543
1.24915
0.0434159
-0.0478222
-0.0538064
-0.0252015
0.032742
0.112014
0.204972
0.30698
0.415662
0.529338
0.646186
0.764877
0.884469
1.00344
1.11815
1.22158
1.30281
1.35045
1.35508
1.25965
0.0184181
-0.0799154
-0.080996
-0.0457909
0.0183016
0.102308
0.198355
0.302186
0.411726
0.525575
0.642214
0.760575
0.880194
1.00032
1.11821
1.22752
1.31728
1.3748
1.38708
1.28494
-0.0239104
-0.126147
-0.119046
-0.0742744
-0.00176273
0.088711
0.189137
0.295686
0.406717
0.521173
0.637921
0.75629
0.87639
0.998327
1.12042
1.23726
1.33816
1.40926
1.43335
1.32858
-0.0874773
-0.188474
-0.16853
-0.110288
-0.0266541
0.0720908
0.17812
0.288157
0.401148
0.516507
0.633579
0.752194
0.873106
0.997363
1.12453
1.25051
1.36541
1.45464
1.49617
1.39527
-0.177691
-0.268991
-0.229735
-0.153077
-0.0552014
0.0536126
0.166296
0.28039
0.39561
0.512009
0.629497
0.748471
0.870385
0.997311
1.13026
1.26687
1.39886
1.51171
1.57811
1.49159
-0.302343
-0.369857
-0.302457
-0.201315
-0.0857783
0.0347537
0.154839
0.273262
0.390744
0.508129
0.625972
0.745278
0.868231
0.997981
1.1372
1.28575
1.43806
1.58096
1.68199
1.62691
-0.472888
-0.493051
-0.385659
-0.252889
-0.116212
0.0173013
0.145067
0.267698
0.387182
0.505282
0.623248
0.742704
0.866555
0.999051
1.1447
1.30618
1.48199
1.66228
1.81058
1.81455
-0.706272
-0.63982
-0.476883
-0.304593
-0.143692
0.00332737
0.138376
0.264594
0.385483
0.503798
0.621478
0.740733
0.865136
1
1.15181
1.32659
1.52866
1.7542
1.96598
2.07332
-1.027
-0.809627
-0.571485
-0.35186
-0.164755
-0.00490657
0.13613
0.264725
0.386064
0.503867
0.620687
0.739219
0.863592
1.00007
1.15712
1.34464
1.5747
1.85301
2.1484
2.42888
-1.46778
-0.998491
-0.662157
-0.388876
-0.175563
-0.00522093
0.139442
0.268595
0.389098
0.505485
0.620751
0.737884
0.861387
0.99827
1.15884
1.35723
1.61522
1.95207
2.3542
2.91333
-2.06985
-1.19592
-0.737146
-0.408381
-0.172193
0.00417505
0.148948
0.276309
0.394465
0.508442
0.621397
0.736337
0.857867
0.993454
1.15483
1.36035
1.64317
2.03991
2.57336
3.56693
-2.90175
-1.37485
-0.767503
-0.396555
-0.148784
0.0255722
0.165338
0.287909
0.401985
0.512451
0.622228
0.734008
0.852094
0.983878
1.14168
1.34702
1.64393
2.08879
2.78177
4.46339
-4.0954
-1.46339
-0.689695
-0.325473
-0.0945519
0.0633239
0.190388
0.30408
0.411851
0.517424
0.622864
0.730091
0.84254
0.966628
1.11361
1.30495
1.58844
2.03625
2.91492
5.74126
-5.60636
-1.36155
-0.479916
-0.193872
-0.0137098
0.113389
0.221353
0.323131
0.423089
0.52289
0.623218
0.724827
0.829852
0.943001
1.07279
1.23625
1.47319
1.85472
2.86465
7.32249
)
;

boundaryField
{
    movingWall
    {
        type            zeroGradient;
    }
    fixedWalls
    {
        type            zeroGradient;
    }
    frontAndBack
    {
        type            empty;
    }
}


// ************************************************************************* //
