/*--------------------------------*- C++ -*----------------------------------*\
  =========                 |
  \\      /  F ield         | OpenFOAM: The Open Source CFD Toolbox
   \\    /   O peration     | Website:  https://openfoam.org
    \\  /    A nd           | Version:  7
     \\/     M anipulation  |
\*---------------------------------------------------------------------------*/
FoamFile
{
    version     2.0;
    format      ascii;
    class       surfaceScalarField;
    location    "0.1";
    object      phi;
}
// * * * * * * * * * * * * * * * * * * * * * * * * * * * * * * * * * * * * * //

dimensions      [0 3 -1 0 0 0 0];

internalField   nonuniform List<scalar> 
760
(
6.03711e-09
-6.03685e-09
-1.43567e-07
1.49604e-07
-3.61252e-07
2.17685e-07
-5.86102e-07
2.2485e-07
-7.83294e-07
1.97192e-07
-9.39349e-07
1.56055e-07
-1.05467e-06
1.15317e-07
-1.13527e-06
8.06044e-08
-1.18803e-06
5.27564e-08
-1.21748e-06
2.94492e-08
-1.22429e-06
6.8139e-09
-1.20488e-06
-1.94114e-08
-1.15097e-06
-5.39062e-08
-1.05154e-06
-9.94362e-08
-8.96786e-07
-1.5475e-07
-6.84519e-07
-2.12267e-07
-4.30213e-07
-2.54306e-07
-1.76576e-07
-2.53637e-07
1.59596e-09
-1.78172e-07
1.59617e-09
-9.44931e-08
8.84559e-08
-4.91007e-07
5.46118e-07
-1.0397e-06
7.66374e-07
-1.6069e-06
7.92052e-07
-2.11093e-06
7.01224e-07
-2.5172e-06
5.6232e-07
-2.82246e-06
4.20582e-07
-3.03816e-06
2.96307e-07
-3.17873e-06
1.9332e-07
-3.25393e-06
1.04658e-07
-3.26474e-06
1.76162e-08
-3.20227e-06
-8.18776e-08
-3.04828e-06
-2.07902e-07
-2.77906e-06
-3.6865e-07
-2.37495e-06
-5.58861e-07
-1.83577e-06
-7.5145e-07
-1.2019e-06
-8.88171e-07
-5.73596e-07
-8.81943e-07
-1.138e-07
-6.37968e-07
-1.12203e-07
-2.26039e-07
3.14495e-07
-8.47809e-07
1.16789e-06
-1.66336e-06
1.58193e-06
-2.49411e-06
1.6228e-06
-3.2309e-06
1.43801e-06
-3.82731e-06
1.15873e-06
-4.27831e-06
8.71583e-07
-4.59836e-06
6.16357e-07
-4.80574e-06
4.00704e-07
-4.91315e-06
2.12062e-07
-4.92182e-06
2.6291e-08
-4.81959e-06
-1.84108e-07
-4.58223e-06
-4.4526e-07
-4.17909e-06
-7.7179e-07
-3.5852e-06
-1.15275e-06
-2.80156e-06
-1.53509e-06
-1.8826e-06
-1.80713e-06
-9.61891e-07
-1.80266e-06
-2.55694e-07
-1.34417e-06
-3.67897e-07
-3.52672e-07
6.67167e-07
-1.1797e-06
1.99491e-06
-2.21534e-06
2.61757e-06
-3.24872e-06
2.65618e-06
-4.15617e-06
2.34546e-06
-4.8875e-06
1.89006e-06
-5.43918e-06
1.42326e-06
-5.82956e-06
1.00673e-06
-6.08061e-06
6.51754e-07
-6.20733e-06
3.38789e-07
-6.21144e-06
3.04025e-08
-6.07911e-06
-3.1644e-07
-5.7827e-06
-7.4167e-07
-5.28672e-06
-1.26778e-06
-4.56103e-06
-1.87844e-06
-3.60364e-06
-2.49247e-06
-2.47223e-06
-2.93855e-06
-1.31659e-06
-2.9583e-06
-3.9016e-07
-2.27059e-06
-7.58057e-07
-4.67768e-07
1.13494e-06
-1.47723e-06
3.00438e-06
-2.69186e-06
3.83219e-06
-3.87402e-06
3.83834e-06
-4.8948e-06
3.36624e-06
-5.70787e-06
2.70314e-06
-6.31579e-06
2.03118e-06
-6.74255e-06
1.43349e-06
-7.01422e-06
9.23427e-07
-7.14825e-06
4.72816e-07
-7.1475e-06
2.96511e-08
-6.99774e-06
-4.66202e-07
-6.66928e-06
-1.07012e-06
-6.12268e-06
-1.81438e-06
-5.32144e-06
-2.67968e-06
-4.25526e-06
-3.55865e-06
-2.97481e-06
-4.219e-06
-1.63293e-06
-4.30018e-06
-5.12395e-07
-3.39112e-06
-1.27045e-06
-5.72962e-07
1.7079e-06
-1.74197e-06
4.17338e-06
-3.09515e-06
5.18538e-06
-4.37315e-06
5.11634e-06
-5.45087e-06
4.44397e-06
-6.29351e-06
3.54578e-06
-6.91414e-06
2.65181e-06
-7.34426e-06
1.86362e-06
-7.61464e-06
1.19381e-06
-7.74526e-06
6.03433e-07
-7.7405e-06
2.48863e-08
-7.58679e-06
-6.19909e-07
-7.25369e-06
-1.40323e-06
-6.69838e-06
-2.36969e-06
-5.87656e-06
-3.5015e-06
-4.76446e-06
-4.67076e-06
-3.39584e-06
-5.58762e-06
-1.91436e-06
-5.78166e-06
-6.2503e-07
-4.68045e-06
-1.89548e-06
-6.72171e-07
2.38007e-06
-1.97761e-06
5.47883e-06
-3.42691e-06
6.63467e-06
-4.74597e-06
6.4354e-06
-5.82341e-06
5.5214e-06
-6.64364e-06
4.36601e-06
-7.23454e-06
3.2427e-06
-7.63646e-06
2.26554e-06
-7.885e-06
1.44235e-06
-8.00261e-06
7.21042e-07
-7.99536e-06
1.76299e-08
-7.85122e-06
-7.64044e-07
-7.54028e-06
-1.71417e-06
-7.0172e-06
-2.89276e-06
-6.229e-06
-4.28969e-06
-5.13393e-06
-5.76583e-06
-3.73944e-06
-6.98211e-06
-2.16683e-06
-7.35427e-06
-7.33565e-07
-6.11372e-06
-2.62905e-06
-7.71004e-07
3.15107e-06
-2.1889e-06
6.89672e-06
-3.68713e-06
8.1329e-06
-4.98804e-06
7.73631e-06
-6.00578e-06
6.53914e-06
-6.75165e-06
5.11188e-06
-7.27175e-06
3.7628e-06
-7.61587e-06
2.60967e-06
-7.82379e-06
1.65027e-06
-7.91988e-06
8.17128e-07
-7.91185e-06
9.60279e-09
-7.78999e-06
-8.85911e-07
-7.52632e-06
-1.97784e-06
-7.07452e-06
-3.34456e-06
-6.3732e-06
-4.99101e-06
-5.35961e-06
-6.77942e-06
-4.00603e-06
-8.33569e-06
-2.39631e-06
-8.96399e-06
-8.45062e-07
-7.66497e-06
-3.47411e-06
-8.76428e-07
4.0275e-06
-2.38013e-06
8.40043e-06
-3.87232e-06
9.62509e-06
-5.08914e-06
8.95313e-06
-5.98474e-06
7.43474e-06
-6.60458e-06
5.73173e-06
-7.01499e-06
4.17321e-06
-7.27444e-06
2.86912e-06
-7.42525e-06
1.80108e-06
-7.4925e-06
8.84381e-07
-7.48523e-06
2.32555e-09
-7.39663e-06
-9.7451e-07
-7.20243e-06
-2.17203e-06
-6.85773e-06
-3.68926e-06
-6.29474e-06
-5.55401e-06
-5.42894e-06
-7.64522e-06
-4.18988e-06
-9.57474e-06
-2.60654e-06
-1.05473e-05
-9.67386e-07
-9.30412e-06
-4.4415e-06
-9.96596e-07
5.0241e-06
-2.55347e-06
9.9573e-06
-3.97297e-06
1.10446e-05
-5.03109e-06
1.00113e-05
-5.73899e-06
8.14263e-06
-6.18251e-06
6.17525e-06
-6.44788e-06
4.43858e-06
-6.59964e-06
3.02089e-06
-6.67989e-06
1.88132e-06
-6.71247e-06
9.16963e-07
-6.70699e-06
-3.16091e-09
-6.66011e-06
-1.02138e-06
-6.55327e-06
-2.27887e-06
-6.34644e-06
-3.89609e-06
-5.96962e-06
-5.93083e-06
-5.31892e-06
-8.29593e-06
-4.27627e-06
-1.06174e-05
-2.79659e-06
-1.2027e-05
-1.1086e-06
-1.09921e-05
-5.5501e-06
-1.14042e-06
6.16452e-06
-2.70611e-06
1.1523e-05
-3.96967e-06
1.23081e-05
-4.7845e-06
1.08261e-05
-5.23729e-06
8.59542e-06
-5.45774e-06
6.3957e-06
-5.54837e-06
4.52921e-06
-5.57492e-06
3.04744e-06
-5.57519e-06
1.88159e-06
-5.56917e-06
9.10941e-07
-5.56589e-06
-6.4367e-09
-5.56591e-06
-1.02137e-06
-5.55852e-06
-2.28625e-06
-5.513e-06
-3.94162e-06
-5.36367e-06
-6.08016e-06
-4.99385e-06
-8.66574e-06
-4.23774e-06
-1.13735e-05
-2.95749e-06
-1.33073e-05
-1.27597e-06
-1.26736e-05
-6.82607e-06
-1.31612e-06
7.48064e-06
-2.82542e-06
1.30323e-05
-3.8275e-06
1.33102e-05
-4.30459e-06
1.13032e-05
-4.43625e-06
8.72708e-06
-4.39409e-06
6.35354e-06
-4.28898e-06
4.4241e-06
-4.18035e-06
2.93881e-06
-4.0965e-06
1.79774e-06
-4.05042e-06
8.64862e-07
-4.04919e-06
-7.66815e-09
-4.09736e-06
-9.73195e-07
-4.19422e-06
-2.18939e-06
-4.32334e-06
-3.8125e-06
-4.43216e-06
-5.97133e-06
-4.40283e-06
-8.69508e-06
-4.02928e-06
-1.17471e-05
-3.06685e-06
-1.42697e-05
-1.4736e-06
-1.42669e-05
-8.29967e-06
-1.52725e-06
9.00789e-06
-2.88026e-06
1.43853e-05
-3.48758e-06
1.39175e-05
-3.52593e-06
1.13415e-05
-3.27808e-06
8.47923e-06
-2.9467e-06
6.02216e-06
-2.63747e-06
4.11488e-06
-2.39367e-06
2.69501e-06
-2.22816e-06
1.63223e-06
-2.14372e-06
7.80419e-07
-2.14395e-06
-7.43945e-09
-2.23724e-06
-8.79901e-07
-2.4345e-06
-1.99213e-06
-2.73849e-06
-3.50851e-06
-3.12012e-06
-5.58971e-06
-3.47723e-06
-8.33796e-06
-3.58191e-06
-1.16424e-05
-3.08034e-06
-1.47713e-05
-1.69729e-06
-1.56499e-05
-9.99696e-06
-1.76336e-06
1.07713e-05
-2.80585e-06
1.54278e-05
-2.85532e-06
1.3967e-05
-2.35653e-06
1.08427e-05
-1.68908e-06
7.81179e-06
-1.06258e-06
5.39566e-06
-5.58261e-07
3.61056e-06
-1.91838e-07
2.32859e-06
4.49986e-08
1.39539e-06
1.62353e-07
6.63064e-07
1.61392e-07
-6.47804e-09
3.04186e-08
-7.48928e-07
-2.53764e-07
-1.70794e-06
-7.16852e-07
-3.04543e-06
-1.36352e-06
-4.94304e-06
-2.12866e-06
-7.57283e-06
-2.79457e-06
-1.09765e-05
-2.91799e-06
-1.46478e-05
-1.92381e-06
-1.66441e-05
-1.19208e-05
-1.97871e-06
1.275e-05
-2.47805e-06
1.59271e-05
-1.78473e-06
1.32737e-05
-6.72443e-07
9.73043e-06
4.20075e-07
6.71927e-06
1.31691e-06
4.49883e-06
1.98491e-06
2.94256e-06
2.44674e-06
1.86675e-06
2.73588e-06
1.10625e-06
2.87658e-06
5.22366e-07
2.87546e-06
-5.35646e-09
2.71841e-06
-5.9188e-07
2.37074e-06
-1.36028e-06
1.78261e-06
-2.4573e-06
9.07769e-07
-4.06819e-06
-2.48337e-07
-6.41672e-06
-1.52457e-06
-9.70023e-06
-2.44272e-06
-1.37297e-05
-2.08899e-06
-1.69978e-05
-1.40098e-05
-2.04639e-06
1.47963e-05
-1.67157e-06
1.55523e-05
-6.04778e-08
1.16626e-05
1.68448e-06
7.98548e-06
3.15035e-06
5.25339e-06
4.25104e-06
3.39815e-06
5.02476e-06
2.16883e-06
5.53913e-06
1.35238e-06
5.85296e-06
7.92423e-07
6.00349e-06
3.71832e-07
6.00243e-06
-4.29063e-09
5.83443e-06
-4.23878e-07
5.45602e-06
-9.81871e-07
4.79607e-06
-1.79735e-06
3.76496e-06
-3.03708e-06
2.2905e-06
-4.94226e-06
4.21588e-07
-7.83132e-06
-1.42864e-06
-1.18795e-05
-2.04543e-06
-1.63811e-05
-1.60552e-05
-1.66915e-06
1.64655e-05
-2.72532e-09
1.38859e-05
2.61861e-06
9.04127e-06
4.90154e-06
5.70255e-06
6.60427e-06
3.55066e-06
7.79105e-06
2.21137e-06
8.58448e-06
1.3754e-06
9.09407e-06
8.42794e-07
9.398e-06
4.88494e-07
9.54193e-06
2.27909e-07
9.54081e-06
-3.17665e-09
9.37947e-06
-2.62539e-07
9.01054e-06
-6.12932e-07
8.34974e-06
-1.13656e-06
7.27251e-06
-1.95985e-06
5.62539e-06
-3.29515e-06
3.29464e-06
-5.50056e-06
4.81303e-07
-9.06613e-06
-1.48749e-06
-1.44123e-05
-1.75427e-05
-2.03308e-07
1.66688e-05
3.17662e-06
1.0506e-05
6.64561e-06
5.57228e-06
9.17403e-06
3.17413e-06
1.08661e-05
1.85861e-06
1.19669e-05
1.11052e-06
1.267e-05
6.72354e-07
1.31078e-05
4.04969e-07
1.33639e-05
2.32406e-07
1.34839e-05
1.07907e-07
1.34827e-05
-1.98001e-09
1.33467e-05
-1.26607e-07
1.30317e-05
-2.97889e-07
1.24542e-05
-5.5903e-07
1.1477e-05
-9.8264e-07
9.88946e-06
-1.70763e-06
7.40308e-06
-3.01418e-06
3.84253e-06
-5.50558e-06
1.85498e-07
-1.07552e-05
-1.73572e-05
3.5597e-06
1.31091e-05
8.87059e-06
5.19508e-06
1.24578e-05
1.98504e-06
1.46453e-05
9.86668e-07
1.59649e-05
5.38985e-07
1.67687e-05
3.06741e-07
1.7261e-05
1.80022e-07
1.75596e-05
1.06356e-07
1.77317e-05
6.03552e-08
1.78118e-05
2.77765e-08
1.78108e-05
-9.69064e-10
1.77184e-05
-3.41626e-08
1.75014e-05
-8.0891e-08
1.7096e-05
-1.53632e-07
1.63886e-05
-2.75226e-07
1.51756e-05
-4.94688e-07
1.30864e-05
-9.24939e-07
9.52082e-06
-1.94003e-06
4.03604e-06
-5.27043e-06
-1.33211e-05
1.31091e-05
1.83042e-05
2.02892e-05
2.12759e-05
2.18149e-05
2.21216e-05
2.23016e-05
2.2408e-05
2.24683e-05
2.24961e-05
2.24952e-05
2.2461e-05
2.23801e-05
2.22265e-05
2.19512e-05
2.14566e-05
2.05316e-05
1.85916e-05
1.33211e-05
)
;

boundaryField
{
    movingWall
    {
        type            calculated;
        value           uniform 0;
    }
    fixedWalls
    {
        type            calculated;
        value           uniform 0;
    }
    frontAndBack
    {
        type            empty;
        value           nonuniform 0();
    }
}


// ************************************************************************* //
