/*--------------------------------*- C++ -*----------------------------------*\
  =========                 |
  \\      /  F ield         | OpenFOAM: The Open Source CFD Toolbox
   \\    /   O peration     | Website:  https://openfoam.org
    \\  /    A nd           | Version:  7
     \\/     M anipulation  |
\*---------------------------------------------------------------------------*/
FoamFile
{
    version     2.0;
    format      ascii;
    class       volVectorField;
    location    "0.1";
    object      U;
}
// * * * * * * * * * * * * * * * * * * * * * * * * * * * * * * * * * * * * * //

dimensions      [0 1 -1 0 0 0 0];

internalField   nonuniform List<vector> 
400
(
(0.000793914 -0.000309079 0)
(-0.00181246 0.00104037 0)
(-0.00982471 0.00161034 0)
(-0.0190482 0.00167148 0)
(-0.0276752 0.00145443 0)
(-0.0348006 0.00113173 0)
(-0.0402106 0.000816256 0)
(-0.0440798 0.000559214 0)
(-0.0467024 0.000368715 0)
(-0.0483243 0.000215824 0)
(-0.0490616 7.23101e-05 0)
(-0.0488626 -9.68441e-05 0)
(-0.0474723 -0.000340755 0)
(-0.0444833 -0.000678927 0)
(-0.0394427 -0.00110107 0)
(-0.0320431 -0.00155674 0)
(-0.0224819 -0.00190298 0)
(-0.0118566 -0.00190825 0)
(-0.00243143 -0.00128547 0)
(0.000805958 0.000276658 0)
(-0.000207636 0.000311459 0)
(-0.00934507 0.00591361 0)
(-0.0299491 0.00853983 0)
(-0.0532348 0.00885268 0)
(-0.0751424 0.00781023 0)
(-0.0935103 0.0062254 0)
(-0.107702 0.0046273 0)
(-0.117992 0.00324584 0)
(-0.124998 0.0021251 0)
(-0.129264 0.00117902 0)
(-0.131021 0.000252536 0)
(-0.130118 -0.000816676 0)
(-0.125982 -0.00219787 0)
(-0.117719 -0.00399772 0)
(-0.104359 -0.00616338 0)
(-0.0853315 -0.00838604 0)
(-0.0612741 -0.00998241 0)
(-0.0348297 -0.00991555 0)
(-0.0110659 -0.00700924 0)
(-0.000334564 -0.000544571 0)
(-0.0021301 0.00346691 0)
(-0.0181776 0.016036 0)
(-0.0494028 0.022193 0)
(-0.0836837 0.0228989 0)
(-0.115699 0.0203039 0)
(-0.142575 0.0163303 0)
(-0.163464 0.0122552 0)
(-0.17871 0.00865521 0)
(-0.189094 0.00564083 0)
(-0.195321 0.0030251 0)
(-0.197694 0.00045649 0)
(-0.196005 -0.00246824 0)
(-0.189482 -0.00614227 0)
(-0.176947 -0.0107819 0)
(-0.157154 -0.0162288 0)
(-0.129388 -0.0217126 0)
(-0.0945193 -0.0255913 0)
(-0.0560563 -0.0254244 0)
(-0.0206199 -0.0186082 0)
(-0.00235936 -0.00419261 0)
(-0.00412792 0.00928911 0)
(-0.0267425 0.0306782 0)
(-0.0671257 0.040981 0)
(-0.110096 0.0418824 0)
(-0.149657 0.0370985 0)
(-0.18265 0.0299272 0)
(-0.208216 0.0225412 0)
(-0.226837 0.0159522 0)
(-0.239463 0.0103582 0)
(-0.246936 0.0054417 0)
(-0.249613 0.000591089 0)
(-0.247256 -0.00488251 0)
(-0.238997 -0.0116279 0)
(-0.223481 -0.0200135 0)
(-0.199244 -0.0297617 0)
(-0.165376 -0.0395299 0)
(-0.122702 -0.0465117 0)
(-0.0750192 -0.0465288 0)
(-0.0297435 -0.0351234 0)
(-0.00445279 -0.0106948 0)
(-0.00599084 0.017542 0)
(-0.0345913 0.0491822 0)
(-0.0828203 0.0637269 0)
(-0.132486 0.0643452 0)
(-0.177282 0.0566944 0)
(-0.21412 0.0456528 0)
(-0.242383 0.0343732 0)
(-0.262808 0.024305 0)
(-0.276537 0.0157028 0)
(-0.284549 0.00810506 0)
(-0.287274 0.00062272 0)
(-0.284484 -0.00777227 0)
(-0.275266 -0.0180246 0)
(-0.258151 -0.0306705 0)
(-0.231465 -0.0453368 0)
(-0.19399 -0.0601197 0)
(-0.146203 -0.0709815 0)
(-0.0916787 -0.071783 0)
(-0.0381043 -0.05575 0)
(-0.00641643 -0.0197698 0)
(-0.00773986 0.0279858 0)
(-0.0417737 0.0710825 0)
(-0.0965621 0.089607 0)
(-0.150965 0.0892077 0)
(-0.198717 0.0779583 0)
(-0.237171 0.0624665 0)
(-0.266188 0.0468677 0)
(-0.286878 0.0330301 0)
(-0.300613 0.0212268 0)
(-0.308508 0.0108002 0)
(-0.311076 0.000559935 0)
(-0.308128 -0.0108761 0)
(-0.298758 -0.0247781 0)
(-0.281427 -0.0418986 0)
(-0.254256 -0.0618401 0)
(-0.215605 -0.0822147 0)
(-0.165299 -0.097777 0)
(-0.106206 -0.100253 0)
(-0.0458053 -0.0799755 0)
(-0.00829207 -0.0311779 0)
(-0.00947752 0.0404558 0)
(-0.048471 0.0959428 0)
(-0.108464 0.117849 0)
(-0.165556 0.115453 0)
(-0.213928 0.0997918 0)
(-0.25176 0.0793484 0)
(-0.279617 0.0591856 0)
(-0.299085 0.0414981 0)
(-0.311789 0.0265115 0)
(-0.318966 0.0133259 0)
(-0.321209 0.000428966 0)
(-0.318394 -0.0139229 0)
(-0.309664 -0.0313504 0)
(-0.293468 -0.0528832 0)
(-0.267735 -0.0782078 0)
(-0.230317 -0.104602 0)
(-0.180115 -0.125726 0)
(-0.118803 -0.131046 0)
(-0.0531142 -0.107329 0)
(-0.0102189 -0.0447754 0)
(-0.0113635 0.0548863 0)
(-0.0549506 0.123302 0)
(-0.11863 0.147574 0)
(-0.176155 0.141958 0)
(-0.222671 0.12104 0)
(-0.257601 0.0952627 0)
(-0.282425 0.0704918 0)
(-0.299261 0.049097 0)
(-0.309973 0.0311623 0)
(-0.315892 0.0155007 0)
(-0.317671 0.000265694 0)
(-0.315264 -0.0166449 0)
(-0.307914 -0.0372174 0)
(-0.294123 -0.0628216 0)
(-0.271683 -0.093367 0)
(-0.237903 -0.126016 0)
(-0.190551 -0.153556 0)
(-0.129605 -0.163161 0)
(-0.0603675 -0.137317 0)
(-0.0123946 -0.0605474 0)
(-0.0136087 0.0713343 0)
(-0.0615285 0.152665 0)
(-0.127083 0.177771 0)
(-0.182454 0.167476 0)
(-0.22444 0.140486 0)
(-0.254145 0.109169 0)
(-0.274127 0.07998 0)
(-0.287029 0.0552561 0)
(-0.294899 0.034823 0)
(-0.299093 0.0171656 0)
(-0.30029 0.000104829 0)
(-0.298529 -0.0188001 0)
(-0.293201 -0.0418985 0)
(-0.282951 -0.0709558 0)
(-0.265535 -0.106261 0)
(-0.237781 -0.145145 0)
(-0.196191 -0.179869 0)
(-0.138568 -0.195439 0)
(-0.0679059 -0.169395 0)
(-0.0150624 -0.0786311 0)
(-0.0164791 0.0900115 0)
(-0.0685331 0.183457 0)
(-0.133671 0.207247 0)
(-0.183843 0.190611 0)
(-0.218394 0.156845 0)
(-0.240535 0.120041 0)
(-0.253985 0.0868988 0)
(-0.261817 0.0594692 0)
(-0.266139 0.0371904 0)
(-0.268236 0.018188 0)
(-0.268757 -2.68893e-05 0)
(-0.267819 -0.0201896 0)
(-0.265013 -0.0449851 0)
(-0.259237 -0.0766087 0)
(-0.248379 -0.115885 0)
(-0.228948 -0.160644 0)
(-0.196203 -0.203112 0)
(-0.145346 -0.226493 0)
(-0.0760108 -0.202899 0)
(-0.0185061 -0.099328 0)
(-0.0202968 0.111307 0)
(-0.0762426 0.214943 0)
(-0.137911 0.234526 0)
(-0.179259 0.209773 0)
(-0.203251 0.168779 0)
(-0.215561 0.126895 0)
(-0.220997 0.0905857 0)
(-0.222863 0.0613222 0)
(-0.22313 0.0380305 0)
(-0.222883 0.018468 0)
(-0.22266 -0.000114371 0)
(-0.222646 -0.0206737 0)
(-0.222676 -0.0461697 0)
(-0.22203 -0.0792254 0)
(-0.218953 -0.121328 0)
(-0.209938 -0.171163 0)
(-0.189209 -0.22156 0)
(-0.149126 -0.254613 0)
(-0.0848083 -0.236926 0)
(-0.0230349 -0.123101 0)
(-0.0254127 0.135795 0)
(-0.0847533 0.246076 0)
(-0.138744 0.257747 0)
(-0.166972 0.223164 0)
(-0.177167 0.17493 0)
(-0.177603 0.128844 0)
(-0.173896 0.0905169 0)
(-0.169239 0.0605292 0)
(-0.165209 0.0372015 0)
(-0.162525 0.0179487 0)
(-0.161534 -0.000155416 0)
(-0.162454 -0.0201855 0)
(-0.16541 -0.0452761 0)
(-0.170193 -0.0784232 0)
(-0.175673 -0.121847 0)
(-0.178765 -0.175418 0)
(-0.173134 -0.233329 0)
(-0.148396 -0.277671 0)
(-0.0940945 -0.270158 0)
(-0.0289268 -0.150547 0)
(-0.0321003 0.164201 0)
(-0.0936997 0.275278 0)
(-0.13416 0.274538 0)
(-0.14431 0.228802 0)
(-0.137594 0.174013 0)
(-0.124593 0.125194 0)
(-0.111159 0.0863773 0)
(-0.0998866 0.0569782 0)
(-0.0916503 0.0346799 0)
(-0.086634 0.0166292 0)
(-0.084904 -0.000158943 0)
(-0.0866827 -0.0187415 0)
(-0.0923999 -0.0422886 0)
(-0.102472 -0.074051 0)
(-0.116676 -0.116958 0)
(-0.132901 -0.172307 0)
(-0.145034 -0.236454 0)
(-0.140607 -0.293044 0)
(-0.10301 -0.300623 0)
(-0.0362739 -0.182295 0)
(-0.0402617 0.197228 0)
(-0.101684 0.300107 0)
(-0.120599 0.281931 0)
(-0.107307 0.22463 0)
(-0.0811583 0.164983 0)
(-0.0540213 0.115579 0)
(-0.031065 0.0781496 0)
(-0.0136824 0.0507834 0)
(-0.00173249 0.0305883 0)
(0.00528378 0.014578 0)
(0.00764923 -0.000139915 0)
(0.00517427 -0.0164472 0)
(-0.00287079 -0.0373774 0)
(-0.0175907 -0.0662514 0)
(-0.0399097 -0.10656 0)
(-0.0692845 -0.161094 0)
(-0.100916 -0.229072 0)
(-0.121719 -0.297621 0)
(-0.109451 -0.325384 0)
(-0.0446099 -0.218749 0)
(-0.0486972 0.235108 0)
(-0.105158 0.316806 0)
(-0.0920968 0.276384 0)
(-0.0503312 0.208788 0)
(-0.00360109 0.147297 0)
(0.0369911 0.100138 0)
(0.0682004 0.0662171 0)
(0.0904633 0.0423349 0)
(0.105184 0.0252185 0)
(0.113622 0.0119446 0)
(0.116436 -0.000113083 0)
(0.113498 -0.0134961 0)
(0.103821 -0.0309137 0)
(0.0856285 -0.0555167 0)
(0.0567315 -0.0910718 0)
(0.0155851 -0.141663 0)
(-0.0355981 -0.209742 0)
(-0.085588 -0.28796 0)
(-0.109027 -0.340198 0)
(-0.0520822 -0.259541 0)
(-0.0534152 0.276764 0)
(-0.0963356 0.319755 0)
(-0.0391302 0.253976 0)
(0.0342158 0.180066 0)
(0.100113 0.121278 0)
(0.151478 0.0797252 0)
(0.188349 0.0514533 0)
(0.213461 0.03233 0)
(0.229556 0.0190376 0)
(0.238606 0.00896047 0)
(0.241599 -8.76735e-05 0)
(0.238484 -0.0101596 0)
(0.228098 -0.0234648 0)
(0.208128 -0.0427177 0)
(0.175203 -0.0715486 0)
(0.125446 -0.114805 0)
(0.0573098 -0.177914 0)
(-0.0232435 -0.260655 0)
(-0.093335 -0.339214 0)
(-0.0537251 -0.302679 0)
(-0.04392 0.318205 0)
(-0.0596631 0.300985 0)
(0.0526558 0.21108 0)
(0.155899 0.138662 0)
(0.235402 0.0885648 0)
(0.29223 0.0560862 0)
(0.330697 0.0352657 0)
(0.355856 0.0217633 0)
(0.371545 0.0126685 0)
(0.380217 0.00592718 0)
(0.383062 -6.41319e-05 0)
(0.380089 -0.00676714 0)
(0.370085 -0.0157632 0)
(0.350466 -0.0290893 0)
(0.317053 -0.0497633 0)
(0.263915 -0.0825368 0)
(0.185198 -0.134609 0)
(0.0778034 -0.213135 0)
(-0.0472997 -0.314822 0)
(-0.038045 -0.342879 0)
(0.00502336 0.346408 0)
(0.0337997 0.250858 0)
(0.203314 0.147395 0)
(0.325506 0.088044 0)
(0.407168 0.052922 0)
(0.461142 0.0321505 0)
(0.495774 0.0196611 0)
(0.517605 0.0119141 0)
(0.530896 0.00686151 0)
(0.538141 0.00319363 0)
(0.540502 -4.40515e-05 0)
(0.538006 -0.00369416 0)
(0.529551 -0.00867778 0)
(0.512679 -0.0162275 0)
(0.483116 -0.0283427 0)
(0.433937 -0.0486542 0)
(0.355808 -0.0839596 0)
(0.233935 -0.14639 0)
(0.0550124 -0.258444 0)
(0.0199234 -0.365124 0)
(0.153248 0.318327 0)
(0.235997 0.164386 0)
(0.437527 0.0743058 0)
(0.552199 0.038857 0)
(0.617915 0.0216321 0)
(0.658219 0.0124718 0)
(0.682838 0.00737034 0)
(0.697857 0.00436951 0)
(0.706821 0.00248385 0)
(0.711662 0.00114658 0)
(0.713236 -3.05062e-05 0)
(0.711545 -0.00138207 0)
(0.705766 -0.00327038 0)
(0.694063 -0.00619906 0)
(0.673077 -0.0110714 0)
(0.63681 -0.0197569 0)
(0.575432 -0.0364331 0)
(0.464816 -0.0724546 0)
(0.259026 -0.166359 0)
(0.174991 -0.325617 0)
(0.541692 0.14135 0)
(0.637295 0.056494 0)
(0.777681 0.0190874 0)
(0.836714 0.00828498 0)
(0.864412 0.00412271 0)
(0.880169 0.00219103 0)
(0.889327 0.00122662 0)
(0.894725 0.000705629 0)
(0.897884 0.000397789 0)
(0.899571 0.000182903 0)
(0.900105 -9.86021e-06 0)
(0.89947 -0.000238259 0)
(0.897327 -0.000571372 0)
(0.89293 -0.00110213 0)
(0.884883 -0.00202102 0)
(0.870504 -0.00379236 0)
(0.844749 -0.00761847 0)
(0.789143 -0.0179892 0)
(0.647897 -0.0553509 0)
(0.553084 -0.140831 0)
)
;

boundaryField
{
    movingWall
    {
        type            fixedValue;
        value           uniform (1 0 0);
    }
    fixedWalls
    {
        type            noSlip;
    }
    frontAndBack
    {
        type            empty;
    }
}


// ************************************************************************* //
