/*--------------------------------*- C++ -*----------------------------------*\
  =========                 |
  \\      /  F ield         | OpenFOAM: The Open Source CFD Toolbox
   \\    /   O peration     | Website:  https://openfoam.org
    \\  /    A nd           | Version:  7
     \\/     M anipulation  |
\*---------------------------------------------------------------------------*/
FoamFile
{
    version     2.0;
    format      ascii;
    class       volScalarField;
    location    "0.2";
    object      p;
}
// * * * * * * * * * * * * * * * * * * * * * * * * * * * * * * * * * * * * * //

dimensions      [0 2 -2 0 0 0 0];

internalField   nonuniform List<scalar> 
400
(
-2.69432e-07
-0.0557269
-0.0773395
-0.0597877
-0.0064722
0.0744078
0.174455
0.287304
0.408716
0.536141
0.66804
0.803099
0.939307
1.07293
1.19745
1.30292
1.37633
1.4053
1.38489
1.32259
0.0131583
-0.0352037
-0.0485813
-0.0293766
0.0211623
0.0971859
0.191907
0.299802
0.416851
0.540324
0.668283
0.798932
0.929843
1.05711
1.17456
1.27337
1.34261
1.37282
1.36152
1.30766
0.0295397
-0.0202405
-0.0285192
-0.00779551
0.041296
0.114193
0.205161
0.309338
0.422934
0.543155
0.667829
0.794881
0.921679
1.04432
1.15701
1.25178
1.319
1.35067
1.34492
1.2895
0.0442405
-0.0128371
-0.0187718
0.00340655
0.0524386
0.12409
0.213109
0.315065
0.426379
0.544291
0.66657
0.791068
0.915166
1.03514
1.14557
1.23908
1.30655
1.34015
1.33705
1.27347
0.0535396
-0.0128479
-0.0172573
0.00680638
0.056922
0.128705
0.217077
0.317895
0.427774
0.544049
0.664538
0.787163
0.909465
1.02802
1.13785
1.23206
1.30163
1.33821
1.33721
1.26336
0.0542738
-0.0216039
-0.0241834
0.00270462
0.0551793
0.128434
0.217372
0.318048
0.42727
0.542519
0.661751
0.783071
0.904305
1.02245
1.13307
1.22971
1.30326
1.34451
1.34645
1.26231
0.0435992
-0.0409087
-0.0405127
-0.00929809
0.0471155
0.123318
0.214085
0.315629
0.424967
0.539787
0.65827
0.778809
0.899632
1.01829
1.13097
1.23176
1.31145
1.35964
1.36638
1.27316
0.0187303
-0.072567
-0.0671208
-0.0294073
0.0328914
0.113667
0.207554
0.310943
0.421117
0.53605
0.654232
0.774439
0.89541
1.01537
1.13131
1.23798
1.32618
1.38428
1.39873
1.29886
-0.0234477
-0.118437
-0.104747
-0.0575692
0.0129699
0.10008
0.198362
0.304492
0.416123
0.531611
0.649846
0.770072
0.891636
1.01356
1.13381
1.24806
1.34741
1.41912
1.44541
1.34291
-0.0868734
-0.180503
-0.153973
-0.0934382
-0.011874
0.0834276
0.187309
0.296938
0.410501
0.526856
0.645382
0.765867
0.888341
1.01274
1.13822
1.2617
1.37509
1.46494
1.50867
1.41
-0.176958
-0.260882
-0.215096
-0.136255
-0.0404768
0.0648827
0.175404
0.289079
0.404852
0.522223
0.641144
0.762001
0.885569
1.01281
1.14425
1.27849
1.40902
1.52247
1.59104
1.50668
-0.301486
-0.361733
-0.287918
-0.184677
-0.071198
0.0459368
0.163846
0.281816
0.399826
0.518166
0.637431
0.758636
0.883326
1.01356
1.15147
1.29781
1.44873
1.59219
1.69529
1.64228
-0.471903
-0.485025
-0.371394
-0.236564
-0.101834
0.0283999
0.153978
0.276093
0.396064
0.515106
0.634496
0.755872
0.881538
1.01468
1.15924
1.31869
1.49317
1.67395
1.82419
1.8301
-0.705154
-0.631982
-0.463037
-0.288674
-0.129535
0.0143682
0.14722
0.272826
0.394137
0.513381
0.632503
0.753708
0.879995
1.01567
1.1666
1.33953
1.54033
1.76625
1.9798
2.08894
-1.02574
-0.802038
-0.558153
-0.336391
-0.150799
0.00612146
0.144944
0.272802
0.394474
0.513193
0.631485
0.752005
0.878321
1.01576
1.17215
1.358
1.58682
1.86539
2.16234
2.44446
-1.46634
-0.991179
-0.649372
-0.373845
-0.161761
0.00584093
0.148262
0.276535
0.39727
0.514558
0.631328
0.750492
0.87599
1.01396
1.17409
1.37095
1.62771
1.96469
2.36818
2.92878
-2.06818
-1.18888
-0.724879
-0.393733
-0.158486
0.0153162
0.157814
0.284146
0.402428
0.517287
0.631771
0.748789
0.872375
1.00915
1.17026
1.37437
1.65596
2.05272
2.58733
3.58219
-2.89981
-1.36805
-0.755663
-0.382206
-0.135125
0.0368168
0.174279
0.295671
0.409755
0.521093
0.632437
0.746346
0.866549
0.999585
1.15723
1.36127
1.65696
2.10171
2.79568
4.47845
-4.09329
-1.45683
-0.678151
-0.311262
-0.0808156
0.074756
0.199461
0.311794
0.41942
0.525853
0.63293
0.742362
0.857001
0.982396
1.12928
1.31939
1.60164
2.04926
2.9288
5.75614
-5.60472
-1.35541
-0.468455
-0.179435
0.000417491
0.125178
0.230581
0.330722
0.430334
0.530979
0.633069
0.73706
0.844448
0.958984
1.08867
1.25086
1.4865
1.86778
2.87853
7.33731
)
;

boundaryField
{
    movingWall
    {
        type            zeroGradient;
    }
    fixedWalls
    {
        type            zeroGradient;
    }
    frontAndBack
    {
        type            empty;
    }
}


// ************************************************************************* //
