/*--------------------------------*- C++ -*----------------------------------*\
  =========                 |
  \\      /  F ield         | OpenFOAM: The Open Source CFD Toolbox
   \\    /   O peration     | Website:  https://openfoam.org
    \\  /    A nd           | Version:  7
     \\/     M anipulation  |
\*---------------------------------------------------------------------------*/
FoamFile
{
    version     2.0;
    format      ascii;
    class       surfaceScalarField;
    location    "0.2";
    object      phi;
}
// * * * * * * * * * * * * * * * * * * * * * * * * * * * * * * * * * * * * * //

dimensions      [0 3 -1 0 0 0 0];

internalField   nonuniform List<scalar> 
760
(
2.01919e-09
-2.01894e-09
-1.50824e-07
1.52843e-07
-3.68086e-07
2.17262e-07
-5.90025e-07
2.21939e-07
-7.84457e-07
1.94432e-07
-9.39501e-07
1.55044e-07
-1.05543e-06
1.15927e-07
-1.13751e-06
8.20866e-08
-1.1916e-06
5.40822e-08
-1.2215e-06
2.99001e-08
-1.22762e-06
6.12662e-09
-1.20635e-06
-2.1271e-08
-1.15019e-06
-5.616e-08
-1.04914e-06
-1.01051e-07
-8.94047e-07
-1.55095e-07
-6.82897e-07
-2.1115e-07
-4.3053e-07
-2.52367e-07
-1.78309e-07
-2.52221e-07
1.40402e-11
-1.78324e-07
1.36682e-11
-9.94961e-08
9.74778e-08
-5.00133e-07
5.5348e-07
-1.04881e-06
7.65935e-07
-1.61287e-06
7.86004e-07
-2.11344e-06
6.95003e-07
-2.51808e-06
5.59679e-07
-2.82384e-06
4.21685e-07
-3.04129e-06
2.99537e-07
-3.18344e-06
1.96238e-07
-3.25902e-06
1.05474e-07
-3.26874e-06
1.5853e-08
-3.2039e-06
-8.61117e-08
-3.04704e-06
-2.13024e-07
-2.77577e-06
-3.72319e-07
-2.37136e-06
-5.59501e-07
-1.83368e-06
-7.48836e-07
-1.20212e-06
-8.8392e-07
-5.75466e-07
-8.78879e-07
-1.15529e-07
-6.38261e-07
-1.15516e-07
-2.27073e-07
3.2455e-07
-8.50302e-07
1.17671e-06
-1.66596e-06
1.58159e-06
-2.49568e-06
1.61573e-06
-3.23126e-06
1.43058e-06
-3.82707e-06
1.15549e-06
-4.27813e-06
8.72745e-07
-4.59865e-06
6.20058e-07
-4.80659e-06
4.04184e-07
-4.9141e-06
2.1298e-07
-4.92225e-06
2.40033e-08
-4.81908e-06
-1.89275e-07
-4.58077e-06
-4.51334e-07
-4.1771e-06
-7.7599e-07
-3.58334e-06
-1.15326e-06
-2.80041e-06
-1.53177e-06
-1.8824e-06
-1.80193e-06
-9.62421e-07
-1.79885e-06
-2.563e-07
-1.34438e-06
-3.71816e-07
-3.50968e-07
6.75519e-07
-1.17744e-06
2.00318e-06
-2.2133e-06
2.61745e-06
-3.24725e-06
2.64967e-06
-4.15505e-06
2.33838e-06
-4.88638e-06
1.88682e-06
-5.43784e-06
1.4242e-06
-5.82784e-06
1.01006e-06
-6.07864e-06
6.54979e-07
-6.20521e-06
3.39551e-07
-6.20932e-06
2.81164e-08
-6.0773e-06
-3.21296e-07
-5.78139e-06
-7.47244e-07
-5.28593e-06
-1.27145e-06
-4.56063e-06
-1.87856e-06
-3.60336e-06
-2.48903e-06
-2.4719e-06
-2.93339e-06
-1.3163e-06
-2.95446e-06
-3.90062e-07
-2.27062e-06
-7.61879e-07
-4.65337e-07
1.14086e-06
-1.47371e-06
3.01156e-06
-2.68861e-06
3.83235e-06
-3.87182e-06
3.83288e-06
-4.89349e-06
3.36005e-06
-5.70677e-06
2.70011e-06
-6.31433e-06
2.03176e-06
-6.74034e-06
1.43607e-06
-7.01141e-06
9.26046e-07
-7.14525e-06
4.73393e-07
-7.14475e-06
2.76147e-08
-6.99576e-06
-4.70285e-07
-6.66834e-06
-1.07466e-06
-6.12261e-06
-1.81718e-06
-5.32178e-06
-2.67939e-06
-4.25548e-06
-3.55534e-06
-2.97462e-06
-4.21425e-06
-1.63252e-06
-4.29656e-06
-5.12146e-07
-3.39099e-06
-1.27403e-06
-5.70577e-07
1.71143e-06
-1.7385e-06
4.17948e-06
-3.09208e-06
5.18593e-06
-4.37126e-06
5.11205e-06
-5.45e-06
4.43879e-06
-6.29284e-06
3.54294e-06
-6.91305e-06
2.65198e-06
-7.34234e-06
1.86536e-06
-7.61197e-06
1.19568e-06
-7.74239e-06
6.03805e-07
-7.73797e-06
2.3194e-08
-7.58514e-06
-6.2311e-07
-7.25317e-06
-1.40664e-06
-6.69875e-06
-2.3716e-06
-5.87729e-06
-3.50085e-06
-4.76496e-06
-4.66767e-06
-3.39586e-06
-5.58334e-06
-1.91407e-06
-5.77836e-06
-6.24833e-07
-4.68023e-06
-1.89886e-06
-6.70092e-07
2.38152e-06
-1.97465e-06
5.48404e-06
-3.42445e-06
6.63573e-06
-4.74467e-06
6.43227e-06
-5.82313e-06
5.51725e-06
-6.64355e-06
4.36336e-06
-7.23399e-06
3.24242e-06
-7.63511e-06
2.26648e-06
-7.88289e-06
1.44346e-06
-8.00025e-06
7.21167e-07
-7.99334e-06
1.62785e-08
-7.85004e-06
-7.66407e-07
-7.54013e-06
-1.71655e-06
-7.01783e-06
-2.89389e-06
-6.22989e-06
-4.28879e-06
-5.13458e-06
-5.76298e-06
-3.73963e-06
-6.97829e-06
-2.16671e-06
-7.35128e-06
-7.33464e-07
-6.11348e-06
-2.63232e-06
-7.69256e-07
3.15078e-06
-2.18644e-06
6.90122e-06
-3.68527e-06
8.13456e-06
-4.98729e-06
7.7343e-06
-6.00603e-06
6.53599e-06
-6.75211e-06
5.10945e-06
-7.27177e-06
3.76207e-06
-7.61514e-06
2.60985e-06
-7.82232e-06
1.65064e-06
-7.91811e-06
8.16954e-07
-7.91036e-06
8.52564e-09
-7.78922e-06
-8.87546e-07
-7.52642e-06
-1.97934e-06
-7.07527e-06
-3.34505e-06
-6.37412e-06
-4.98993e-06
-5.3603e-06
-6.77681e-06
-4.00631e-06
-8.33228e-06
-2.39631e-06
-8.96127e-06
-8.45032e-07
-7.66476e-06
-3.47735e-06
-8.74942e-07
4.02572e-06
-2.37802e-06
8.4043e-06
-3.87087e-06
9.62741e-06
-5.08879e-06
8.95222e-06
-5.98536e-06
7.43256e-06
-6.6055e-06
5.72959e-06
-7.01551e-06
4.17208e-06
-7.27425e-06
2.86859e-06
-7.42434e-06
1.80074e-06
-7.49123e-06
8.83847e-07
-7.48412e-06
1.41588e-09
-7.39612e-06
-9.75555e-07
-7.20265e-06
-2.17281e-06
-6.85847e-06
-3.68923e-06
-6.2956e-06
-5.55279e-06
-5.42959e-06
-7.64283e-06
-4.19018e-06
-9.57168e-06
-2.60658e-06
-1.05449e-05
-9.67375e-07
-9.30397e-06
-4.44473e-06
-9.95266e-07
5.02099e-06
-2.55152e-06
9.96056e-06
-3.97167e-06
1.10476e-05
-5.03093e-06
1.00115e-05
-5.73982e-06
8.14144e-06
-6.18374e-06
6.17352e-06
-6.44879e-06
4.43712e-06
-6.59987e-06
3.01968e-06
-6.6794e-06
1.88027e-06
-6.71155e-06
9.15992e-07
-6.7061e-06
-4.03345e-09
-6.65968e-06
-1.02198e-06
-6.55345e-06
-2.27904e-06
-6.34707e-06
-3.8956e-06
-5.97037e-06
-5.9295e-06
-5.31947e-06
-8.29373e-06
-4.27651e-06
-1.06146e-05
-2.7966e-06
-1.20248e-05
-1.10855e-06
-1.0992e-05
-5.55328e-06
-1.13913e-06
6.16012e-06
-2.70412e-06
1.15255e-05
-3.96828e-06
1.23117e-05
-4.78432e-06
1.08275e-05
-5.23817e-06
8.59529e-06
-5.45913e-06
6.39448e-06
-5.54955e-06
4.52754e-06
-5.57545e-06
3.04558e-06
-5.57498e-06
1.87979e-06
-5.56842e-06
9.09436e-07
-5.56504e-06
-7.41273e-09
-5.56538e-06
-1.02164e-06
-5.55853e-06
-2.28589e-06
-5.51344e-06
-3.94069e-06
-5.36426e-06
-6.07868e-06
-4.99427e-06
-8.66372e-06
-4.23787e-06
-1.1371e-05
-2.95739e-06
-1.33053e-05
-1.27582e-06
-1.26736e-05
-6.8291e-06
-1.31474e-06
7.47485e-06
-2.8232e-06
1.3034e-05
-3.82579e-06
1.33143e-05
-4.30419e-06
1.13059e-05
-4.43704e-06
8.72814e-06
-4.39553e-06
6.35297e-06
-4.29032e-06
4.42232e-06
-4.18107e-06
2.93634e-06
-4.09643e-06
1.79515e-06
-4.0497e-06
8.62709e-07
-4.04822e-06
-8.89496e-09
-4.0966e-06
-9.73257e-07
-4.19396e-06
-2.18853e-06
-4.32354e-06
-3.81111e-06
-4.43259e-06
-5.96963e-06
-4.40311e-06
-8.69319e-06
-4.02925e-06
-1.17449e-05
-3.06658e-06
-1.42679e-05
-1.4733e-06
-1.42669e-05
-8.3024e-06
-1.52567e-06
9.00053e-06
-2.87763e-06
1.4386e-05
-3.48537e-06
1.39221e-05
-3.52512e-06
1.13457e-05
-3.27864e-06
8.48165e-06
-2.94806e-06
6.0224e-06
-2.63886e-06
4.11312e-06
-2.39449e-06
2.69197e-06
-2.22813e-06
1.62879e-06
-2.14292e-06
7.77503e-07
-2.14275e-06
-9.06288e-09
-2.23615e-06
-8.79861e-07
-2.4339e-06
-1.99078e-06
-2.73844e-06
-3.50657e-06
-3.12038e-06
-5.58769e-06
-3.4774e-06
-8.33617e-06
-3.58173e-06
-1.16406e-05
-3.07987e-06
-1.47698e-05
-1.69684e-06
-1.56499e-05
-9.99924e-06
-1.76153e-06
1.07621e-05
-2.80272e-06
1.54272e-05
-2.85249e-06
1.39718e-05
-2.35518e-06
1.08484e-05
-1.68928e-06
7.81576e-06
-1.06375e-06
5.39686e-06
-5.59588e-07
3.60896e-06
-1.92646e-07
2.32502e-06
4.50638e-08
1.39108e-06
1.6327e-07
6.59297e-07
1.62831e-07
-8.62355e-09
3.18473e-08
-7.48878e-07
-2.52837e-07
-1.7061e-06
-7.16566e-07
-3.04284e-06
-1.36367e-06
-4.94058e-06
-2.12875e-06
-7.57109e-06
-2.79424e-06
-1.09751e-05
-2.91732e-06
-1.46467e-05
-1.9232e-06
-1.6644e-05
-1.19224e-05
-1.97669e-06
1.27388e-05
-2.4745e-06
1.5925e-05
-1.78136e-06
1.32787e-05
-6.70556e-07
9.73755e-06
4.2031e-07
6.72489e-06
1.31606e-06
4.50111e-06
1.98377e-06
2.94125e-06
2.44603e-06
1.86277e-06
2.73599e-06
1.10112e-06
2.87755e-06
5.1774e-07
2.87701e-06
-8.08976e-09
2.72003e-06
-5.91897e-07
2.37186e-06
-1.35792e-06
1.78302e-06
-2.454e-06
9.07659e-07
-4.06522e-06
-2.48428e-07
-6.415e-06
-1.52417e-06
-9.69935e-06
-2.44188e-06
-1.3729e-05
-2.08824e-06
-1.69977e-05
-1.40107e-05
-2.04451e-06
1.47833e-05
-1.66813e-06
1.55486e-05
-5.7033e-08
1.16676e-05
1.68667e-06
7.99385e-06
3.15103e-06
5.26053e-06
4.25066e-06
3.40148e-06
5.02401e-06
2.1679e-06
5.53861e-06
1.34817e-06
5.85305e-06
7.86678e-07
6.00427e-06
3.66519e-07
6.00372e-06
-7.54035e-09
5.83584e-06
-4.24009e-07
5.457e-06
-9.79091e-07
4.79636e-06
-1.79335e-06
3.76475e-06
-3.03361e-06
2.29032e-06
-4.94058e-06
4.21979e-07
-7.831e-06
-1.42772e-06
-1.18793e-05
-2.04461e-06
-1.63808e-05
-1.60553e-05
-1.6683e-06
1.64516e-05
-8.21546e-10
1.38811e-05
2.62086e-06
9.0459e-06
4.90329e-06
5.71142e-06
6.60525e-06
3.55857e-06
7.7914e-06
2.21533e-06
8.58445e-06
1.37484e-06
9.0939e-06
8.38721e-07
9.39787e-06
4.82707e-07
9.54194e-06
2.2245e-07
9.541e-06
-6.60285e-09
9.37976e-06
-2.62772e-07
9.01067e-06
-6.09995e-07
8.34951e-06
-1.13219e-06
7.27204e-06
-1.95615e-06
5.62506e-06
-3.2936e-06
3.29488e-06
-5.50082e-06
4.82096e-07
-9.06652e-06
-1.48675e-06
-1.44119e-05
-1.7542e-05
-2.0555e-07
1.66571e-05
3.17391e-06
1.05016e-05
6.64393e-06
5.57588e-06
9.17383e-06
3.18152e-06
1.08671e-05
1.86531e-06
1.19685e-05
1.11395e-06
1.26712e-05
6.72063e-07
1.31082e-05
4.01806e-07
1.3363e-05
2.27837e-07
1.34819e-05
1.03554e-07
1.34801e-05
-4.77618e-09
1.33442e-05
-1.2685e-07
1.30296e-05
-2.95449e-07
1.24528e-05
-5.55327e-07
1.14762e-05
-9.79542e-07
9.88906e-06
-1.70649e-06
7.403e-06
-3.01476e-06
3.84276e-06
-5.50628e-06
1.85811e-07
-1.0755e-05
-1.73562e-05
3.55317e-06
1.31039e-05
8.8616e-06
5.19321e-06
1.24508e-05
1.9867e-06
1.46423e-05
9.89985e-07
1.59658e-05
5.41879e-07
1.67716e-05
3.08134e-07
1.72638e-05
1.79838e-07
1.75606e-05
1.05001e-07
1.773e-05
5.84416e-08
1.78076e-05
2.59907e-08
1.78049e-05
-2.11241e-09
1.77123e-05
-3.42736e-08
1.74967e-05
-7.98332e-08
1.70933e-05
-1.51974e-07
1.63876e-05
-2.73833e-07
1.51754e-05
-4.94248e-07
1.3086e-05
-9.25379e-07
9.52025e-06
-1.94053e-06
4.03564e-06
-5.27036e-06
-1.33206e-05
1.31039e-05
1.82972e-05
2.02839e-05
2.12738e-05
2.18157e-05
2.21239e-05
2.23037e-05
2.24087e-05
2.24671e-05
2.24931e-05
2.2491e-05
2.24567e-05
2.23769e-05
2.22249e-05
2.19511e-05
2.14569e-05
2.05315e-05
1.85909e-05
1.33206e-05
)
;

boundaryField
{
    movingWall
    {
        type            calculated;
        value           uniform 0;
    }
    fixedWalls
    {
        type            calculated;
        value           uniform 0;
    }
    frontAndBack
    {
        type            empty;
        value           nonuniform 0();
    }
}


// ************************************************************************* //
