/*--------------------------------*- C++ -*----------------------------------*\
  =========                 |
  \\      /  F ield         | OpenFOAM: The Open Source CFD Toolbox
   \\    /   O peration     | Website:  https://openfoam.org
    \\  /    A nd           | Version:  7
     \\/     M anipulation  |
\*---------------------------------------------------------------------------*/
FoamFile
{
    version     2.0;
    format      ascii;
    class       volVectorField;
    location    "0.2";
    object      U;
}
// * * * * * * * * * * * * * * * * * * * * * * * * * * * * * * * * * * * * * //

dimensions      [0 1 -1 0 0 0 0];

internalField   nonuniform List<vector> 
400
(
(0.000717537 -0.000246489 0)
(-0.00204299 0.00108675 0)
(-0.0101129 0.00160584 0)
(-0.0192732 0.00163289 0)
(-0.0277825 0.00141381 0)
(-0.0348242 0.001113 0)
(-0.0402222 0.000823727 0)
(-0.0441364 0.000580902 0)
(-0.0468192 0.000386053 0)
(-0.0484811 0.000222293 0)
(-0.0492152 6.25587e-05 0)
(-0.0489588 -0.000125003 0)
(-0.0474827 -0.00037179 0)
(-0.0444166 -0.000700314 0)
(-0.0393369 -0.00110839 0)
(-0.0319547 -0.00154459 0)
(-0.0224562 -0.00187672 0)
(-0.0118978 -0.00188735 0)
(-0.00250076 -0.00128682 0)
(0.000774879 0.000253529 0)
(-0.000279404 0.000450082 0)
(-0.00963159 0.006034 0)
(-0.0303188 0.00854018 0)
(-0.0535545 0.00876555 0)
(-0.0753291 0.00771952 0)
(-0.0935767 0.00618609 0)
(-0.107731 0.00464298 0)
(-0.118075 0.00329448 0)
(-0.12516 0.00216858 0)
(-0.129467 0.00118966 0)
(-0.131209 0.000225557 0)
(-0.13023 -0.000880271 0)
(-0.125985 -0.00227642 0)
(-0.117624 -0.00405552 0)
(-0.104217 -0.0061759 0)
(-0.085219 -0.0083495 0)
(-0.0612385 -0.00992028 0)
(-0.0348694 -0.00987044 0)
(-0.0111416 -0.00701427 0)
(-0.00036267 -0.00059374 0)
(-0.002095 0.00367135 0)
(-0.0182275 0.0162052 0)
(-0.049484 0.0221782 0)
(-0.0837768 0.0227521 0)
(-0.115764 0.0201551 0)
(-0.142593 0.0162681 0)
(-0.163451 0.0122798 0)
(-0.178705 0.00872936 0)
(-0.189117 0.0057103 0)
(-0.195356 0.00304638 0)
(-0.19772 0.000413971 0)
(-0.195994 -0.00257023 0)
(-0.189435 -0.00626204 0)
(-0.176882 -0.0108659 0)
(-0.157087 -0.0162427 0)
(-0.129339 -0.02165 0)
(-0.0944939 -0.0254894 0)
(-0.0560512 -0.0253501 0)
(-0.0206359 -0.0186141 0)
(-0.00235541 -0.00427065 0)
(-0.004022 0.00947973 0)
(-0.0266199 0.0308558 0)
(-0.0669999 0.0409815 0)
(-0.110033 0.0417482 0)
(-0.149641 0.0369514 0)
(-0.182632 0.0298601 0)
(-0.208168 0.0225636 0)
(-0.22677 0.0160274 0)
(-0.239389 0.0104277 0)
(-0.246847 0.00545703 0)
(-0.249516 0.000544506 0)
(-0.247164 -0.00498434 0)
(-0.238927 -0.0117494 0)
(-0.223449 -0.020097 0)
(-0.199241 -0.0297686 0)
(-0.165381 -0.0394597 0)
(-0.122692 -0.0464057 0)
(-0.0749895 -0.0464517 0)
(-0.02972 -0.035127 0)
(-0.00442857 -0.0107739 0)
(-0.00585572 0.0176848 0)
(-0.0344173 0.0493381 0)
(-0.0826419 0.063727 0)
(-0.132386 0.0642235 0)
(-0.17725 0.0565622 0)
(-0.214103 0.0455931 0)
(-0.242336 0.0343892 0)
(-0.262726 0.0243641 0)
(-0.276434 0.0157639 0)
(-0.284424 0.00812042 0)
(-0.287144 0.000579265 0)
(-0.284374 -0.00786276 0)
(-0.275201 -0.0181269 0)
(-0.258142 -0.0307354 0)
(-0.231494 -0.045334 0)
(-0.194023 -0.0600509 0)
(-0.146207 -0.070882 0)
(-0.0916481 -0.0717088 0)
(-0.0380718 -0.0557493 0)
(-0.00638544 -0.0198438 0)
(-0.00759469 0.0280787 0)
(-0.0415948 0.0712143 0)
(-0.0963901 0.0896152 0)
(-0.150879 0.0891115 0)
(-0.198701 0.0778447 0)
(-0.237171 0.062409 0)
(-0.266157 0.0468766 0)
(-0.286807 0.0330735 0)
(-0.300517 0.0212731 0)
(-0.30839 0.0108111 0)
(-0.310954 0.000522293 0)
(-0.308029 -0.0109495 0)
(-0.298707 -0.0248568 0)
(-0.281435 -0.0419442 0)
(-0.254303 -0.0618297 0)
(-0.215652 -0.0821507 0)
(-0.165313 -0.0976874 0)
(-0.106181 -0.100184 0)
(-0.0457751 -0.0799716 0)
(-0.00825987 -0.0312467 0)
(-0.00933115 0.0405052 0)
(-0.0483043 0.0960552 0)
(-0.108316 0.117866 0)
(-0.1655 0.115381 0)
(-0.213939 0.099699 0)
(-0.251781 0.0792933 0)
(-0.279608 0.0591856 0)
(-0.299037 0.0415255 0)
(-0.311715 0.0265416 0)
(-0.318871 0.0133312 0)
(-0.321109 0.000398656 0)
(-0.318314 -0.013978 0)
(-0.309628 -0.0314069 0)
(-0.293487 -0.0529121 0)
(-0.267791 -0.0781917 0)
(-0.23037 -0.104543 0)
(-0.180136 -0.125646 0)
(-0.118786 -0.130983 0)
(-0.0530891 -0.107324 0)
(-0.0101874 -0.0448409 0)
(-0.0112189 0.0548974 0)
(-0.0547987 0.123399 0)
(-0.118505 0.1476 0)
(-0.176125 0.141907 0)
(-0.222706 0.120968 0)
(-0.257642 0.0952112 0)
(-0.282437 0.070482 0)
(-0.299236 0.0491086 0)
(-0.309924 0.0311768 0)
(-0.315824 0.0155002 0)
(-0.317594 0.00024196 0)
(-0.315202 -0.0166839 0)
(-0.30789 -0.0372549 0)
(-0.294148 -0.0628366 0)
(-0.271741 -0.0933466 0)
(-0.237959 -0.125962 0)
(-0.190574 -0.153484 0)
(-0.129592 -0.163103 0)
(-0.0603464 -0.137311 0)
(-0.0123641 -0.0606117 0)
(-0.013466 0.0713129 0)
(-0.0613876 0.152749 0)
(-0.126975 0.177811 0)
(-0.182441 0.167447 0)
(-0.224493 0.140433 0)
(-0.254201 0.109123 0)
(-0.274156 0.0799609 0)
(-0.287026 0.0552525 0)
(-0.294873 0.0348231 0)
(-0.299047 0.0171587 0)
(-0.300233 8.56483e-05 0)
(-0.298481 -0.0188259 0)
(-0.293184 -0.0419204 0)
(-0.282977 -0.0709597 0)
(-0.265592 -0.106238 0)
(-0.237834 -0.145095 0)
(-0.196214 -0.179804 0)
(-0.138556 -0.195386 0)
(-0.0678864 -0.16939 0)
(-0.0150325 -0.0786953 0)
(-0.0163381 0.089962 0)
(-0.0683973 0.183529 0)
(-0.133571 0.2073 0)
(-0.183838 0.190604 0)
(-0.218454 0.156811 0)
(-0.240602 0.120002 0)
(-0.254026 0.0868719 0)
(-0.261831 0.0594513 0)
(-0.26613 0.0371762 0)
(-0.268207 0.0181733 0)
(-0.268712 -4.40099e-05 0)
(-0.267777 -0.0202052 0)
(-0.264996 -0.0449942 0)
(-0.259259 -0.0766034 0)
(-0.24843 -0.115859 0)
(-0.228997 -0.160598 0)
(-0.196224 -0.203054 0)
(-0.145332 -0.226445 0)
(-0.0759898 -0.202896 0)
(-0.0184759 -0.0993918 0)
(-0.0201573 0.111231 0)
(-0.076106 0.215001 0)
(-0.137808 0.234592 0)
(-0.179251 0.209789 0)
(-0.203311 0.168764 0)
(-0.215633 0.126864 0)
(-0.221048 0.0905531 0)
(-0.222889 0.0612909 0)
(-0.223134 0.038002 0)
(-0.222863 0.0184437 0)
(-0.222621 -0.000132223 0)
(-0.222602 -0.0206819 0)
(-0.222652 -0.0461678 0)
(-0.222044 -0.0792115 0)
(-0.218997 -0.1213 0)
(-0.209982 -0.17112 0)
(-0.189226 -0.221507 0)
(-0.149109 -0.25457 0)
(-0.0847828 -0.236924 0)
(-0.0230035 -0.123163 0)
(-0.0252746 0.135694 0)
(-0.0846105 0.246119 0)
(-0.138631 0.257824 0)
(-0.166953 0.223205 0)
(-0.177218 0.174937 0)
(-0.177673 0.128825 0)
(-0.173952 0.0904811 0)
(-0.169273 0.0604852 0)
(-0.16522 0.0371577 0)
(-0.162509 0.0179126 0)
(-0.161492 -0.000176937 0)
(-0.162404 -0.0201886 0)
(-0.165375 -0.0452641 0)
(-0.170195 -0.0784005 0)
(-0.175708 -0.121815 0)
(-0.178802 -0.175379 0)
(-0.173146 -0.233282 0)
(-0.148372 -0.277633 0)
(-0.0940624 -0.270157 0)
(-0.0288935 -0.150605 0)
(-0.0319634 0.164071 0)
(-0.0935464 0.275303 0)
(-0.134027 0.274624 0)
(-0.14427 0.22887 0)
(-0.137629 0.174046 0)
(-0.124658 0.12519 0)
(-0.111217 0.0863409 0)
(-0.0999248 0.0569225 0)
(-0.0916644 0.0346196 0)
(-0.0866177 0.0165789 0)
(-0.0848569 -0.00018699 0)
(-0.0866209 -0.0187415 0)
(-0.0923507 -0.0422667 0)
(-0.10246 -0.0740181 0)
(-0.116702 -0.116921 0)
(-0.132932 -0.17227 0)
(-0.145041 -0.236414 0)
(-0.140577 -0.293011 0)
(-0.10297 -0.300622 0)
(-0.0362382 -0.182346 0)
(-0.0401262 0.197064 0)
(-0.101519 0.300108 0)
(-0.120441 0.282023 0)
(-0.107242 0.224726 0)
(-0.0811725 0.165045 0)
(-0.0540749 0.115592 0)
(-0.0311199 0.0781154 0)
(-0.0137209 0.0507167 0)
(-0.00174639 0.0305105 0)
(0.00530289 0.0145112 0)
(0.0077036 -0.00017723 0)
(0.00524784 -0.016446 0)
(-0.00280749 -0.0373456 0)
(-0.017566 -0.0662066 0)
(-0.0399279 -0.106516 0)
(-0.0693124 -0.161059 0)
(-0.100919 -0.229039 0)
(-0.121683 -0.297594 0)
(-0.109403 -0.325384 0)
(-0.0445715 -0.218789 0)
(-0.0485657 0.234904 0)
(-0.104984 0.316778 0)
(-0.0919182 0.276481 0)
(-0.0502398 0.208915 0)
(-0.00359222 0.147392 0)
(0.0369527 0.100173 0)
(0.0681535 0.0661876 0)
(0.0904289 0.0422585 0)
(0.105173 0.0251228 0)
(0.113643 0.0118598 0)
(0.116494 -0.00016198 0)
(0.113578 -0.0134956 0)
(0.103892 -0.030872 0)
(0.0856613 -0.0554582 0)
(0.0567174 -0.0910175 0)
(0.0155574 -0.141628 0)
(-0.0356009 -0.209719 0)
(-0.0855482 -0.287941 0)
(-0.108972 -0.340196 0)
(-0.0520417 -0.259568 0)
(-0.053296 0.276519 0)
(-0.0961738 0.319695 0)
(-0.0389522 0.254076 0)
(0.0343187 0.180222 0)
(0.100141 0.121407 0)
(0.151459 0.079782 0)
(0.188318 0.0514302 0)
(0.213438 0.0322463 0)
(0.229549 0.0189267 0)
(0.238622 0.00885926 0)
(0.241647 -0.000148597 0)
(0.238552 -0.0101613 0)
(0.228161 -0.0234136 0)
(0.208157 -0.0426447 0)
(0.175187 -0.0714833 0)
(0.125414 -0.114771 0)
(0.0573042 -0.177903 0)
(-0.0232036 -0.260647 0)
(-0.0932768 -0.33921 0)
(-0.0536844 -0.30269 0)
(-0.0438341 0.317928 0)
(-0.0595651 0.300895 0)
(0.0527743 0.211177 0)
(0.155971 0.138839 0)
(0.235431 0.0887218 0)
(0.292236 0.0561637 0)
(0.330698 0.0352518 0)
(0.355856 0.0216784 0)
(0.371541 0.0125501 0)
(0.380213 0.00581585 0)
(0.383069 -0.000134267 0)
(0.38011 -0.00677147 0)
(0.370106 -0.0157037 0)
(0.350469 -0.0290031 0)
(0.317025 -0.0496898 0)
(0.263877 -0.0825029 0)
(0.185187 -0.134607 0)
(0.0778365 -0.213137 0)
(-0.0472464 -0.314816 0)
(-0.0380076 -0.342873 0)
(0.0050295 0.346134 0)
(0.0337157 0.250758 0)
(0.203243 0.147481 0)
(0.325459 0.0882179 0)
(0.407167 0.0530781 0)
(0.461184 0.0322289 0)
(0.495834 0.0196518 0)
(0.517647 0.0118363 0)
(0.530892 0.00674973 0)
(0.538082 0.0030883 0)
(0.540408 -0.000110075 0)
(0.537907 -0.00369949 0)
(0.529464 -0.00862062 0)
(0.512613 -0.0161407 0)
(0.483064 -0.0282702 0)
(0.433898 -0.048628 0)
(0.35579 -0.0839732 0)
(0.233946 -0.146405 0)
(0.0550406 -0.25844 0)
(0.0199491 -0.365105 0)
(0.153138 0.318156 0)
(0.235673 0.16432 0)
(0.437197 0.0743595 0)
(0.551983 0.0389697 0)
(0.617863 0.0217357 0)
(0.658297 0.0125268 0)
(0.682966 0.00736955 0)
(0.697946 0.00432541 0)
(0.706814 0.00241824 0)
(0.711539 0.00108317 0)
(0.713022 -7.19483e-05 0)
(0.711298 -0.00138553 0)
(0.705549 -0.00323315 0)
(0.693919 -0.00614257 0)
(0.673006 -0.0110237 0)
(0.636782 -0.0197389 0)
(0.575418 -0.0364423 0)
(0.464801 -0.0724663 0)
(0.259016 -0.166354 0)
(0.174995 -0.3256 0)
(0.54159 0.141273 0)
(0.637042 0.0564647 0)
(0.777425 0.0191073 0)
(0.836557 0.00832924 0)
(0.864385 0.00416229 0)
(0.880235 0.00221134 0)
(0.889422 0.00122619 0)
(0.894789 0.000687857 0)
(0.897878 0.000370155 0)
(0.899485 0.000157389 0)
(0.899957 -2.50653e-05 0)
(0.899298 -0.00023955 0)
(0.897175 -0.000556045 0)
(0.892835 -0.00107807 0)
(0.88485 -0.00200229 0)
(0.870507 -0.00378759 0)
(0.844751 -0.00762605 0)
(0.789128 -0.0179978 0)
(0.647876 -0.0553514 0)
(0.553077 -0.140822 0)
)
;

boundaryField
{
    movingWall
    {
        type            fixedValue;
        value           uniform (1 0 0);
    }
    fixedWalls
    {
        type            noSlip;
    }
    frontAndBack
    {
        type            empty;
    }
}


// ************************************************************************* //
