/*--------------------------------*- C++ -*----------------------------------*\
  =========                 |
  \\      /  F ield         | OpenFOAM: The Open Source CFD Toolbox
   \\    /   O peration     | Website:  https://openfoam.org
    \\  /    A nd           | Version:  7
     \\/     M anipulation  |
\*---------------------------------------------------------------------------*/
FoamFile
{
    version     2.0;
    format      ascii;
    class       volScalarField;
    location    "0.2";
    object      p;
}
// * * * * * * * * * * * * * * * * * * * * * * * * * * * * * * * * * * * * * //

dimensions      [0 2 -2 0 0 0 0];

internalField   nonuniform List<scalar> 
400
(
2.25618e-06
5.07225e-05
6.97992e-05
4.37881e-05
-2.63113e-05
-0.000136397
-0.000280444
-0.000451064
-0.000640476
-0.00084107
-0.00104549
-0.00124645
-0.0014365
-0.00160786
-0.00175253
-0.00186295
-0.00193299
-0.00195858
-0.00193914
-0.00189129
-7.90978e-05
-1.21029e-05
6.24209e-06
-2.73032e-05
-0.000100821
-0.000207575
-0.000342184
-0.000498634
-0.000670621
-0.000851899
-0.00103632
-0.00121776
-0.00139001
-0.00154672
-0.00168145
-0.00178807
-0.00186112
-0.00189385
-0.00187436
-0.00180614
8.88617e-05
0.00015839
0.000165679
0.00011128
1.35256e-05
-0.000117538
-0.000275103
-0.000452644
-0.000643972
-0.000843403
-0.0010456
-0.0012453
-0.00143708
-0.00161508
-0.0017729
-0.00190379
-0.0020008
-0.00205374
-0.00204414
-0.00197178
0.000549087
0.00057394
0.000528177
0.000417782
0.000263724
7.87253e-05
-0.000128763
-0.000351869
-0.000585026
-0.000823886
-0.00106482
-0.00130438
-0.00153875
-0.00176325
-0.00197187
-0.00215726
-0.00231053
-0.00241857
-0.00245989
-0.00242913
0.00136457
0.00127701
0.00111699
0.000900469
0.000647374
0.000372489
8.57802e-05
-0.000206369
-0.000500496
-0.000795321
-0.00109085
-0.00138742
-0.00168467
-0.00198067
-0.00227102
-0.00254828
-0.00280152
-0.00301481
-0.0031668
-0.00324252
0.00261116
0.00230388
0.00193721
0.00154383
0.00113638
0.000730092
0.000335724
-4.28461e-05
-0.000407143
-0.000762325
-0.00111563
-0.00147481
-0.00184645
-0.00223447
-0.0026386
-0.00305283
-0.00346411
-0.00385459
-0.00420802
-0.00449292
0.00435502
0.00365796
0.00294514
0.00227708
0.00164686
0.00106618
0.000544325
7.86763e-05
-0.00034248
-0.00073655
-0.00112412
-0.00152652
-0.0019633
-0.00244977
-0.00299447
-0.00359597
-0.00424038
-0.00491003
-0.00560346
-0.00626138
0.00660631
0.00525777
0.00399629
0.00292461
0.00199392
0.00120416
0.000558244
4.00233e-05
-0.000381063
-0.000743983
-0.00109235
-0.00147097
-0.00192209
-0.00248169
-0.00317544
-0.0040126
-0.00498154
-0.00607011
-0.00730935
-0.00859539
0.00922783
0.00684409
0.00475306
0.00311893
0.00181282
0.000807405
9.01408e-05
-0.000380255
-0.000666492
-0.000843043
-0.000990981
-0.00119344
-0.00153051
-0.00207383
-0.00288025
-0.00398108
-0.00537408
-0.00706358
-0.00914347
-0.0114409
0.0117774
0.00782407
0.00453713
0.00216501
0.000437271
-0.000727399
-0.00137244
-0.0015818
-0.00146926
-0.00116404
-0.000804616
-0.000533568
-0.000491189
-0.000808227
-0.00159604
-0.00292844
-0.00482764
-0.0073358
-0.0106602
-0.0145244
0.0132542
0.00703022
0.00210585
-0.00116304
-0.00328276
-0.00443192
-0.00470921
-0.00426556
-0.00329009
-0.00199056
-0.000587669
0.000689004
0.00160761
0.00194299
0.00149121
9.95285e-05
-0.00230942
-0.00585697
-0.0109469
-0.0171525
0.0117146
0.0023646
-0.00467076
-0.00891129
-0.011239
-0.0119973
-0.0113763
-0.00962425
-0.00703223
-0.00391057
-0.000587753
0.00258842
0.00525449
0.00704029
0.0075889
0.00660458
0.0038934
-0.000825776
-0.00829344
-0.017875
0.00372748
-0.00970053
-0.0192523
-0.0243299
-0.0263974
-0.0260685
-0.0236756
-0.0195977
-0.014248
-0.00805278
-0.0014631
0.00503032
0.0108902
0.0155359
0.0183669
0.0188355
0.0165115
0.0107941
0.000357722
-0.0139025
-0.0163698
-0.0348024
-0.0470017
-0.0523259
-0.0531472
-0.0505197
-0.0449915
-0.0370992
-0.0273758
-0.0163439
-0.0045556
0.00736291
0.0186789
0.0285357
0.0359703
0.0400104
0.039769
0.0340085
0.0203496
-6.80702e-05
-0.0575504
-0.0816443
-0.09588
-0.0998634
-0.0974554
-0.0904426
-0.0796881
-0.0658909
-0.0496494
-0.0314914
-0.0119674
0.00825278
0.0282955
0.0470159
0.0629779
0.0745563
0.0800447
0.0769763
0.0609951
0.0331675
-0.134387
-0.163823
-0.177387
-0.176018
-0.16628
-0.15116
-0.13191
-0.10932
-0.0838923
-0.0559402
-0.025761
0.00619111
0.0391439
0.0718398
0.102413
0.12843
0.146923
0.15321
0.139093
0.104194
-0.272928
-0.303833
-0.307911
-0.290983
-0.26501
-0.234768
-0.20172
-0.166395
-0.128788
-0.0885463
-0.0452175
0.0015036
0.051546
0.104168
0.157647
0.209091
0.254098
0.284446
0.284668
0.248965
-0.524916
-0.536158
-0.505206
-0.450783
-0.391844
-0.334444
-0.279486
-0.226369
-0.173702
-0.119645
-0.0622042
0.000550338
0.0702416
0.147892
0.233407
0.324873
0.417288
0.498935
0.545805
0.538928
-1.09704
-0.944657
-0.779508
-0.638988
-0.520871
-0.421168
-0.336756
-0.263438
-0.196439
-0.131061
-0.0627778
0.0129228
0.100454
0.204363
0.328949
0.477132
0.648642
0.840865
1.04917
1.23246
-2.76821
-1.79751
-1.13965
-0.765043
-0.531125
-0.375745
-0.271441
-0.198992
-0.143891
-0.0955626
-0.0457011
0.0133601
0.0903514
0.196433
0.347033
0.562379
0.868163
1.31587
2.03251
3.04342
)
;

boundaryField
{
    movingWall
    {
        type            zeroGradient;
    }
    fixedWalls
    {
        type            zeroGradient;
    }
    frontAndBack
    {
        type            empty;
    }
}


// ************************************************************************* //
