/*--------------------------------*- C++ -*----------------------------------*\
  =========                 |
  \\      /  F ield         | OpenFOAM: The Open Source CFD Toolbox
   \\    /   O peration     | Website:  https://openfoam.org
    \\  /    A nd           | Version:  7
     \\/     M anipulation  |
\*---------------------------------------------------------------------------*/
FoamFile
{
    version     2.0;
    format      ascii;
    class       surfaceScalarField;
    location    "0.2";
    object      phi;
}
// * * * * * * * * * * * * * * * * * * * * * * * * * * * * * * * * * * * * * //

dimensions      [0 3 -1 0 0 0 0];

internalField   nonuniform List<scalar> 
760
(
8.84388e-10
-9.21852e-10
3.76702e-09
-2.88276e-09
7.93419e-09
-4.16717e-09
1.26024e-08
-4.66825e-09
1.71628e-08
-4.56072e-09
2.12036e-08
-4.0411e-09
2.44803e-08
-3.2771e-09
2.68711e-08
-2.39105e-09
2.83282e-08
-1.45728e-09
2.88377e-08
-5.09659e-10
2.83937e-08
4.43969e-10
2.69898e-08
1.40381e-09
2.46305e-08
2.35922e-09
2.13592e-08
3.27127e-09
1.72999e-08
4.05932e-09
1.2705e-08
4.59489e-09
7.99902e-09
4.70594e-09
3.80396e-09
4.19493e-09
9.13018e-10
2.89074e-09
9.12973e-10
2.83038e-09
-3.75214e-09
8.89206e-09
-8.94434e-09
1.65065e-08
-1.17813e-08
2.44579e-08
-1.26194e-08
3.1887e-08
-1.19897e-08
3.8261e-08
-1.0415e-08
4.3307e-08
-8.32296e-09
4.69287e-08
-6.01257e-09
4.91231e-08
-3.65133e-09
4.99115e-08
-1.29763e-09
4.92959e-08
1.06019e-09
4.72452e-08
3.45514e-09
4.37151e-08
5.89023e-09
3.8696e-08
8.29135e-09
3.22853e-08
1.04712e-08
2.47703e-08
1.21111e-08
1.67093e-08
1.27681e-08
8.99148e-09
1.19139e-08
2.85799e-09
9.02535e-09
3.77132e-09
3.2998e-09
-7.05251e-09
9.83634e-09
-1.54809e-08
1.73075e-08
-1.92524e-08
2.42889e-08
-1.96009e-08
3.00324e-08
-1.77335e-08
3.42982e-08
-1.46812e-08
3.7189e-08
-1.12141e-08
3.89832e-08
-7.80728e-09
3.99881e-08
-4.65656e-09
4.04232e-08
-1.7331e-09
4.03498e-08
1.13336e-09
3.96494e-08
4.15535e-09
3.80555e-08
7.48407e-09
3.52336e-08
1.11133e-08
3.09027e-08
1.48021e-08
2.4985e-08
1.80288e-08
1.77684e-08
1.99845e-08
1.0064e-08
1.96182e-08
3.35904e-09
1.57303e-08
7.1305e-09
2.71556e-09
-9.76834e-09
6.79108e-09
-1.95562e-08
9.7149e-09
-2.21758e-08
1.03463e-08
-2.02319e-08
8.57815e-09
-1.5965e-08
5.019e-09
-1.11217e-08
6.811e-10
-6.8759e-09
-3.31393e-09
-3.81197e-09
-5.98884e-09
-1.98131e-09
-6.70229e-09
-1.01921e-09
-5.26554e-09
-3.02853e-10
-1.97598e-09
8.66451e-10
2.43411e-09
3.07473e-09
6.93044e-09
6.61773e-09
1.03803e-08
1.13531e-08
1.18117e-08
1.6598e-08
1.07052e-08
2.10913e-08
7.29283e-09
2.30306e-08
2.85138e-09
2.01718e-08
9.98185e-09
7.0388e-10
-1.0472e-08
-1.91516e-09
-1.69369e-08
-1.00729e-08
-1.4018e-08
-2.38796e-08
-6.42522e-09
-4.19484e-08
2.10373e-09
-6.19503e-08
8.88007e-09
-8.11464e-08
1.23198e-08
-9.68721e-08
1.19133e-08
-1.06948e-07
8.09402e-09
-1.09985e-07
2.017e-09
-1.05567e-07
-4.721e-09
-9.43059e-08
-1.03946e-08
-7.77589e-08
-1.34722e-08
-5.82179e-08
-1.29231e-08
-3.83817e-08
-8.48296e-09
-2.09298e-08
-8.53811e-10
-8.03794e-09
8.1993e-09
-8.56514e-10
1.58488e-08
1.00191e-09
1.83132e-08
1.09836e-08
-3.72176e-09
-6.75e-09
-1.99408e-08
-7.17249e-10
-4.96809e-08
1.57221e-08
-9.07875e-08
3.46815e-08
-1.39011e-07
5.03276e-08
-1.88945e-07
5.88141e-08
-2.34874e-07
5.82488e-08
-2.7154e-07
4.85798e-08
-2.94774e-07
3.13277e-08
-3.01955e-07
9.19804e-09
-2.92293e-07
-1.43835e-08
-2.66906e-07
-3.57816e-08
-2.28703e-07
-5.16752e-08
-1.82063e-07
-5.95624e-08
-1.32334e-07
-5.82122e-08
-8.51629e-08
-4.80247e-08
-4.57118e-08
-3.12522e-08
-1.7816e-08
-1.20475e-08
-3.09848e-09
3.59526e-09
7.88475e-09
-1.22397e-08
5.48976e-09
-5.33346e-08
4.03782e-08
-1.21444e-07
8.38307e-08
-2.10086e-07
1.23324e-07
-3.10001e-07
1.50243e-07
-4.10641e-07
1.59454e-07
-5.01473e-07
1.49081e-07
-5.73124e-07
1.20231e-07
-6.183e-07
7.65032e-08
-6.32454e-07
2.33516e-08
-6.14192e-07
-3.26452e-08
-5.65399e-07
-8.45749e-08
-4.91071e-07
-1.26003e-07
-3.98865e-07
-1.51768e-07
-2.9836e-07
-1.58717e-07
-2.00059e-07
-1.46326e-07
-1.14183e-07
-1.17129e-07
-4.9327e-08
-7.69039e-08
-1.10096e-08
-3.47225e-08
-3.12508e-09
-2.74124e-08
3.29024e-08
-1.11137e-07
1.24103e-07
-2.43477e-07
2.1617e-07
-4.10336e-07
2.90183e-07
-5.9419e-07
3.34098e-07
-7.76355e-07
3.41618e-07
-9.38888e-07
3.11615e-07
-1.0662e-06
2.4754e-07
-1.14631e-06
1.56612e-07
-1.17178e-06
4.8821e-08
-1.14026e-06
-6.41578e-08
-1.05471e-06
-1.70124e-07
-9.23167e-07
-2.57549e-07
-7.58164e-07
-3.16772e-07
-5.75729e-07
-3.41152e-07
-3.93955e-07
-3.281e-07
-2.31214e-07
-2.79869e-07
-1.04106e-07
-2.04012e-07
-2.51475e-08
-1.13682e-07
-2.82726e-08
-5.28893e-08
8.5792e-08
-2.0589e-07
2.77104e-07
-4.40504e-07
4.50783e-07
-7.29977e-07
5.79655e-07
-1.04383e-06
6.47952e-07
-1.35113e-06
6.48917e-07
-1.62308e-06
5.83567e-07
-1.83515e-06
4.59607e-07
-1.96867e-06
2.90137e-07
-2.01205e-06
9.21965e-08
-1.96145e-06
-1.14757e-07
-1.82113e-06
-3.1044e-07
-1.60328e-06
-4.75407e-07
-1.32728e-06
-5.92767e-07
-1.01852e-06
-6.49918e-07
-7.06415e-07
-6.40201e-07
-4.2197e-07
-5.64314e-07
-1.94695e-07
-4.31287e-07
-4.90515e-08
-2.59325e-07
-7.7324e-08
-9.35258e-08
1.79318e-07
-3.53822e-07
5.37401e-07
-7.43799e-07
8.4076e-07
-1.21671e-06
1.05256e-06
-1.72273e-06
1.15397e-06
-2.21338e-06
1.13957e-06
-2.64483e-06
1.01502e-06
-2.98039e-06
7.95176e-07
-3.19241e-06
5.02154e-07
-3.26354e-06
1.6333e-07
-3.18768e-06
-1.90617e-07
-2.97041e-06
-5.27715e-07
-2.62898e-06
-8.16831e-07
-2.19177e-06
-1.02998e-06
-1.69687e-06
-1.14482e-06
-1.18987e-06
-1.1472e-06
-7.20511e-07
-1.03367e-06
-3.38427e-07
-8.1337e-07
-8.77315e-08
-5.1002e-07
-1.65056e-07
-1.55308e-07
3.34626e-07
-5.74144e-07
9.56238e-07
-1.18914e-06
1.45576e-06
-1.92339e-06
1.78681e-06
-2.69955e-06
1.93013e-06
-3.44544e-06
1.88546e-06
-4.09775e-06
1.66732e-06
-4.60451e-06
1.30194e-06
-4.92683e-06
8.2447e-07
-5.04002e-06
2.76527e-07
-4.93457e-06
-2.96073e-07
-4.61676e-06
-8.45523e-07
-4.10916e-06
-1.32443e-06
-3.45055e-06
-1.6886e-06
-2.69497e-06
-1.9004e-06
-1.90956e-06
-1.93261e-06
-1.17073e-06
-1.7725e-06
-5.58396e-07
-1.42571e-06
-1.48097e-07
-9.20318e-07
-3.13153e-07
-2.44929e-07
5.79556e-07
-8.86942e-07
1.59825e-06
-1.81149e-06
2.3803e-06
-2.898e-06
2.87332e-06
-4.03203e-06
3.06416e-06
-5.11165e-06
2.96508e-06
-6.05063e-06
2.6063e-06
-6.77998e-06
2.03129e-06
-7.24853e-06
1.29302e-06
-7.42326e-06
4.51258e-07
-7.28984e-06
-4.29498e-07
-6.85355e-06
-1.28181e-06
-6.14059e-06
-2.03738e-06
-5.19938e-06
-2.62981e-06
-4.10119e-06
-2.99859e-06
-2.9393e-06
-3.0945e-06
-1.82566e-06
-2.88614e-06
-8.84164e-07
-2.3672e-06
-2.395e-07
-1.56498e-06
-5.52653e-07
-3.69085e-07
9.48641e-07
-1.30949e-06
2.53866e-06
-2.6353e-06
3.70611e-06
-4.165e-06
4.40302e-06
-5.7372e-06
4.63636e-06
-7.21644e-06
4.44433e-06
-8.49399e-06
3.88385e-06
-9.48612e-06
3.02343e-06
-1.01318e-05
1.93873e-06
-1.03909e-05
7.10309e-07
-1.02431e-05
-5.77246e-07
-9.68948e-06
-1.83546e-06
-8.75453e-06
-2.97233e-06
-7.49052e-06
-3.89382e-06
-5.98168e-06
-4.50743e-06
-4.34749e-06
-4.72869e-06
-2.74267e-06
-4.49095e-06
-1.35167e-06
-3.75821e-06
-3.74478e-07
-2.54217e-06
-9.27131e-07
-5.34245e-07
1.48289e-06
-1.85224e-06
3.85666e-06
-3.66078e-06
5.51465e-06
-5.69576e-06
6.438e-06
-7.74161e-06
6.68221e-06
-9.63278e-06
6.3355e-06
-1.12474e-05
5.49843e-06
-1.24982e-05
4.27426e-06
-1.33244e-05
2.76491e-06
-1.36847e-05
1.07064e-06
-1.35543e-05
-7.0769e-07
-1.29246e-05
-2.4651e-06
-1.18081e-05
-4.08883e-06
-1.02459e-05
-5.456e-06
-8.31929e-06
-6.43408e-06
-6.16167e-06
-6.88631e-06
-3.96878e-06
-6.68384e-06
-2.0009e-06
-5.72609e-06
-5.69947e-07
-3.97313e-06
-1.49708e-06
-7.49827e-07
2.23271e-06
-2.51852e-06
5.62535e-06
-4.84703e-06
7.84315e-06
-7.36337e-06
8.95435e-06
-9.80117e-06
9.12001e-06
-1.19853e-05
8.51961e-06
-1.38082e-05
7.32136e-06
-1.5207e-05
5.67303e-06
-1.61438e-05
3.70177e-06
-1.65922e-05
1.51902e-06
-1.65286e-05
-7.71322e-07
-1.59305e-05
-3.06315e-06
-1.47818e-05
-5.23753e-06
-1.30852e-05
-7.15263e-06
-1.08831e-05
-8.63621e-06
-8.28557e-06
-9.48382e-06
-5.502e-06
-9.46741e-06
-2.8677e-06
-8.36039e-06
-8.49724e-07
-5.9911e-06
-2.3468e-06
-1.04102e-06
3.27373e-06
-3.31308e-06
7.89741e-06
-6.08469e-06
1.06148e-05
-8.8591e-06
1.17288e-05
-1.13572e-05
1.16181e-05
-1.34525e-05
1.06149e-05
-1.51106e-05
8.97945e-06
-1.63434e-05
6.90583e-06
-1.71756e-05
4.53402e-06
-1.76225e-05
1.96595e-06
-1.76764e-05
-7.17422e-07
-1.73014e-05
-3.43822e-06
-1.64362e-05
-6.10269e-06
-1.50087e-05
-8.58015e-06
-1.29639e-05
-1.0681e-05
-1.03111e-05
-1.21366e-05
-7.19051e-06
-1.2588e-05
-3.95504e-06
-1.15959e-05
-1.24778e-06
-8.69836e-06
-3.59459e-06
-1.46692e-06
4.74066e-06
-4.21827e-06
1.06488e-05
-7.06632e-06
1.34628e-05
-9.44459e-06
1.4107e-05
-1.11995e-05
1.3373e-05
-1.2381e-05
1.17964e-05
-1.3124e-05
9.72247e-06
-1.35804e-05
7.36214e-06
-1.38794e-05
4.83307e-06
-1.41062e-05
2.19279e-06
-1.42887e-05
-5.34949e-07
-1.43899e-05
-3.33706e-06
-1.43043e-05
-6.18823e-06
-1.38633e-05
-9.02121e-06
-1.28556e-05
-1.16887e-05
-1.10789e-05
-1.39133e-05
-8.437e-06
-1.52299e-05
-5.10556e-06
-1.49273e-05
-1.79559e-06
-1.20083e-05
-5.39017e-06
-2.11541e-06
6.85607e-06
-4.85341e-06
1.33868e-05
-6.55631e-06
1.51657e-05
-7.00054e-06
1.45513e-05
-6.48467e-06
1.28572e-05
-5.41062e-06
1.07223e-05
-4.15313e-06
8.46499e-06
-3.01532e-06
6.22433e-06
-2.21869e-06
4.03644e-06
-1.90622e-06
1.88032e-06
-2.14534e-06
-2.95836e-07
-2.92367e-06
-2.55873e-06
-4.13815e-06
-4.97375e-06
-5.57592e-06
-7.58344e-06
-6.89885e-06
-1.03658e-05
-7.65062e-06
-1.31616e-05
-7.31951e-06
-1.5561e-05
-5.51563e-06
-1.67312e-05
-2.45603e-06
-1.50679e-05
-7.8462e-06
-2.82559e-06
9.68166e-06
-2.60257e-06
1.31637e-05
4.84355e-07
1.20788e-05
4.93371e-06
1.01019e-05
9.75934e-06
8.03154e-06
1.43383e-05
6.1434e-06
1.82819e-05
4.52135e-06
2.13559e-05
3.15031e-06
2.3421e-05
1.97137e-06
2.43909e-05
9.10404e-07
2.42078e-05
-1.12714e-07
2.2839e-05
-1.18997e-06
2.02802e-05
-2.41495e-06
1.65936e-05
-3.89683e-06
1.19647e-05
-5.7368e-06
6.78831e-06
-7.98522e-06
1.77255e-06
-1.05452e-05
-1.93752e-06
-1.30211e-05
-2.64693e-06
-1.43585e-05
-1.04931e-05
9.68166e-06
2.28454e-05
3.49242e-05
4.50261e-05
5.30576e-05
5.9201e-05
6.37224e-05
6.68727e-05
6.88441e-05
6.97545e-05
6.96418e-05
6.84518e-05
6.60368e-05
6.214e-05
5.64032e-05
4.8418e-05
3.78728e-05
2.48517e-05
1.04931e-05
)
;

boundaryField
{
    movingWall
    {
        type            calculated;
        value           uniform 0;
    }
    fixedWalls
    {
        type            calculated;
        value           uniform 0;
    }
    frontAndBack
    {
        type            empty;
        value           nonuniform 0();
    }
}


// ************************************************************************* //
