/*--------------------------------*- C++ -*----------------------------------*\
  =========                 |
  \\      /  F ield         | OpenFOAM: The Open Source CFD Toolbox
   \\    /   O peration     | Website:  https://openfoam.org
    \\  /    A nd           | Version:  7
     \\/     M anipulation  |
\*---------------------------------------------------------------------------*/
FoamFile
{
    version     2.0;
    format      ascii;
    class       volVectorField;
    location    "0.2";
    object      U;
}
// * * * * * * * * * * * * * * * * * * * * * * * * * * * * * * * * * * * * * //

dimensions      [0 1 -1 0 0 0 0];

internalField   nonuniform List<vector> 
400
(
(2.97478e-06 -5.57191e-06 0)
(2.03461e-05 -2.04392e-05 0)
(5.64161e-05 -3.12274e-05 0)
(0.000102177 -3.60787e-05 0)
(0.000149498 -3.58649e-05 0)
(0.000193211 -3.21012e-05 0)
(0.000230188 -2.61841e-05 0)
(0.000258711 -1.91585e-05 0)
(0.00027802 -1.16735e-05 0)
(0.000287876 -4.04073e-06 0)
(0.000288217 3.64587e-06 0)
(0.000278979 1.13606e-05 0)
(0.00026011 1.89889e-05 0)
(0.000231775 2.61819e-05 0)
(0.000194722 3.22442e-05 0)
(0.000150719 3.60869e-05 0)
(0.00010301 3.62845e-05 0)
(5.69169e-05 3.13201e-05 0)
(2.06671e-05 2.03651e-05 0)
(3.11672e-06 5.41695e-06 0)
(1.19112e-05 -4.24272e-05 0)
(5.40775e-05 -0.00010899 0)
(0.000124088 -0.000149213 0)
(0.000204852 -0.000164121 0)
(0.000283632 -0.000159176 0)
(0.000353571 -0.000140652 0)
(0.000411048 -0.000113995 0)
(0.000454461 -8.32115e-05 0)
(0.000483489 -5.07588e-05 0)
(0.000498359 -1.77814e-05 0)
(0.000499259 1.54274e-05 0)
(0.000486038 4.88365e-05 0)
(0.000458232 8.2056e-05 0)
(0.000415426 0.000113767 0)
(0.000357881 0.000141295 0)
(0.000287279 0.000160421 0)
(0.000207451 0.000165547 0)
(0.000125548 0.000150361 0)
(5.46284e-05 0.000109527 0)
(1.20079e-05 4.23877e-05 0)
(1.46374e-05 -0.000109189 0)
(6.22102e-05 -0.000249368 0)
(0.000134462 -0.000321041 0)
(0.000209857 -0.000338567 0)
(0.000274917 -0.000317766 0)
(0.00032505 -0.0002732 0)
(0.000360262 -0.000216448 0)
(0.000382898 -0.000155355 0)
(0.000396199 -9.40704e-05 0)
(0.000403029 -3.37075e-05 0)
(0.00040491 2.65589e-05 0)
(0.000401543 8.81403e-05 0)
(0.00039086 0.000151613 0)
(0.000369609 0.000215412 0)
(0.000334389 0.000274811 0)
(0.000282968 0.000321387 0)
(0.000215715 0.000343107 0)
(0.000137808 0.000325214 0)
(6.34505e-05 0.000252061 0)
(1.48306e-05 0.000109925 0)
(1.38587e-05 -0.000175159 0)
(4.89313e-05 -0.000371992 0)
(8.62926e-05 -0.000450216 0)
(0.000105914 -0.000445883 0)
(9.97414e-05 -0.000391454 0)
(7.09775e-05 -0.000313612 0)
(2.87166e-05 -0.000231564 0)
(-1.56451e-05 -0.000156435 0)
(-5.10675e-05 -9.1859e-05 0)
(-6.9072e-05 -3.55205e-05 0)
(-6.53184e-05 1.86164e-05 0)
(-4.03727e-05 7.76923e-05 0)
(3.84022e-07 0.000147228 0)
(4.77002e-05 0.000228587 0)
(9.01734e-05 0.000316904 0)
(0.000116546 0.000399754 0)
(0.000118377 0.000456833 0)
(9.35842e-05 0.000460833 0)
(5.17352e-05 0.000379406 0)
(1.43292e-05 0.000177589 0)
(8.66201e-06 -0.000218281 0)
(6.07031e-06 -0.00041207 0)
(-4.59552e-05 -0.000437069 0)
(-0.000157493 -0.000362615 0)
(-0.000321576 -0.000245742 0)
(-0.000518388 -0.000129574 0)
(-0.000721257 -4.18325e-05 0)
(-0.000902017 5.29124e-06 0)
(-0.00103555 1.3445e-05 0)
(-0.00110341 -5.01512e-06 0)
(-0.00109625 -3.11294e-05 0)
(-0.00101512 -4.40075e-05 0)
(-0.000871198 -2.5653e-05 0)
(-0.00068442 3.44825e-05 0)
(-0.000480681 0.000135635 0)
(-0.000288047 0.000262965 0)
(-0.000132139 0.000386339 0)
(-3.07481e-05 0.000460997 0)
(1.21459e-05 0.000429625 0)
(9.76011e-06 0.000224573 0)
(-4.2954e-06 -0.000202962 0)
(-8.62348e-05 -0.000265578 0)
(-0.000315845 -0.000121471 0)
(-0.000679038 0.000109134 0)
(-0.00113823 0.000334046 0)
(-0.00164307 0.000489033 0)
(-0.00213622 0.000538454 0)
(-0.0025611 0.000474235 0)
(-0.00286919 0.000312188 0)
(-0.00302557 8.6276e-05 0)
(-0.00301276 -0.000158463 0)
(-0.00283244 -0.000373775 0)
(-0.00250529 -0.000516271 0)
(-0.00206879 -0.000555146 0)
(-0.00157307 -0.000478951 0)
(-0.00107491 -0.000300793 0)
(-0.000630133 -6.12567e-05 0)
(-0.000285729 0.000171562 0)
(-7.37342e-05 0.000303899 0)
(-1.88276e-06 0.000217662 0)
(-3.10517e-05 -6.7401e-05 0)
(-0.000261607 0.000240843 0)
(-0.000811129 0.000757565 0)
(-0.00161705 0.0012869 0)
(-0.00258584 0.00168829 0)
(-0.00361511 0.00187235 0)
(-0.00459744 0.00179916 0)
(-0.00543084 0.00147486 0)
(-0.0060299 0.000944644 0)
(-0.00633404 0.000282944 0)
(-0.0063129 -0.000418075 0)
(-0.00596899 -0.00106107 0)
(-0.00533746 -0.00155639 0)
(-0.0044831 -0.00183459 0)
(-0.00349434 -0.00185769 0)
(-0.00247424 -0.00162844 0)
(-0.0015287 -0.00119626 0)
(-0.0007551 -0.000658997 0)
(-0.000237365 -0.000162268 0)
(-2.605e-05 9.94244e-05 0)
(-8.10477e-05 0.000291875 0)
(-0.000571006 0.00138722 0)
(-0.00166199 0.00261252 0)
(-0.00320266 0.00366441 0)
(-0.00500406 0.00433967 0)
(-0.00688004 0.00452261 0)
(-0.00864544 0.00417844 0)
(-0.0101293 0.00334546 0)
(-0.0111908 0.00212266 0)
(-0.011731 0.000654041 0)
(-0.0117 -0.0008892 0)
(-0.011101 -0.00232766 0)
(-0.00998969 -0.00349335 0)
(-0.0084711 -0.00424896 0)
(-0.00669125 -0.00450606 0)
(-0.00482449 -0.00424065 0)
(-0.00305582 -0.00350455 0)
(-0.00156536 -0.00243071 0)
(-0.000527144 -0.00123573 0)
(-7.13659e-05 -0.000226352 0)
(-0.000168163 0.00103999 0)
(-0.00108634 0.0036065 0)
(-0.00304786 0.00606818 0)
(-0.00574933 0.00797763 0)
(-0.00884747 0.00905754 0)
(-0.0120279 0.00917227 0)
(-0.0149906 0.00831176 0)
(-0.0174648 0.00657612 0)
(-0.0192307 0.00415533 0)
(-0.0201346 0.00130531 0)
(-0.020098 -0.00167788 0)
(-0.019123 -0.00448532 0)
(-0.0172926 -0.00682348 0)
(-0.0147673 -0.00844281 0)
(-0.0117752 -0.00916566 0)
(-0.00859533 -0.00891198 0)
(-0.00553254 -0.00771973 0)
(-0.00289749 -0.00575748 0)
(-0.00101368 -0.00333379 0)
(-0.000150815 -0.000914311 0)
(-0.000311513 0.00242739 0)
(-0.00190251 0.00753598 0)
(-0.00519876 0.0120252 0)
(-0.00965019 0.0152698 0)
(-0.0146758 0.016918 0)
(-0.0197743 0.016836 0)
(-0.0244848 0.0150749 0)
(-0.0284003 0.0118432 0)
(-0.0311946 0.00747518 0)
(-0.0326397 0.00239672 0)
(-0.0326169 -0.00290968 0)
(-0.0311228 -0.00794129 0)
(-0.0282723 -0.0122134 0)
(-0.0242962 -0.0152993 0)
(-0.0195318 -0.0168717 0)
(-0.0144034 -0.0167438 0)
(-0.00938972 -0.0149044 0)
(-0.00499978 -0.0115455 0)
(-0.00179637 -0.00708479 0)
(-0.000283376 -0.00220338 0)
(-0.000535735 0.00481466 0)
(-0.00313507 0.0140649 0)
(-0.00838338 0.0217116 0)
(-0.0153489 0.026935 0)
(-0.0231011 0.0293353 0)
(-0.03088 0.0288313 0)
(-0.0380137 0.0255986 0)
(-0.0439223 0.0200234 0)
(-0.0481471 0.0126561 0)
(-0.0503674 0.00416585 0)
(-0.0504102 -0.00470263 0)
(-0.048258 -0.013173 0)
(-0.0440547 -0.0204843 0)
(-0.0381082 -0.025943 0)
(-0.0308875 -0.0289813 0)
(-0.0230041 -0.0292195 0)
(-0.015175 -0.026528 0)
(-0.00819927 -0.0210794 0)
(-0.00301128 -0.0134015 0)
(-0.000496394 -0.00445059 0)
(-0.000870303 0.00869278 0)
(-0.00491106 0.0243609 0)
(-0.0128758 0.0366916 0)
(-0.0232658 0.0446999 0)
(-0.0346598 0.048018 0)
(-0.0459619 0.0467194 0)
(-0.0562462 0.0412095 0)
(-0.0647372 0.0321511 0)
(-0.0708314 0.0204003 0)
(-0.0741064 0.00695162 0)
(-0.074324 -0.00710741 0)
(-0.0714364 -0.0206412 0)
(-0.0655976 -0.0325148 0)
(-0.0571786 -0.0416534 0)
(-0.0467795 -0.0471182 0)
(-0.0352249 -0.0481973 0)
(-0.0235329 -0.0445085 0)
(-0.0129063 -0.0361006 0)
(-0.00484038 -0.023564 0)
(-0.00082934 -0.00817503 0)
(-0.00134863 0.0146914 0)
(-0.00735344 0.0398508 0)
(-0.0188962 0.0587885 0)
(-0.0336635 0.0704782 0)
(-0.0495752 0.0747679 0)
(-0.0651354 0.0720774 0)
(-0.0791556 0.0632119 0)
(-0.0906829 0.0492462 0)
(-0.0989969 0.0314425 0)
(-0.103595 0.0111949 0)
(-0.104174 -0.0100055 0)
(-0.100635 -0.0305987 0)
(-0.0930967 -0.0489886 0)
(-0.0819339 -0.0635941 0)
(-0.0678217 -0.0729327 0)
(-0.051769 -0.0757436 0)
(-0.0351207 -0.071148 0)
(-0.0196003 -0.0588377 0)
(-0.00752256 -0.0393021 0)
(-0.00134046 -0.0141154 0)
(-0.00201193 0.0235743 0)
(-0.0105722 0.0621305 0)
(-0.0265368 0.0898538 0)
(-0.0464417 0.105991 0)
(-0.0673681 0.110985 0)
(-0.0874093 0.10595 0)
(-0.105193 0.0923603 0)
(-0.119701 0.0718789 0)
(-0.13021 0.0462684 0)
(-0.136222 0.0173527 0)
(-0.13741 -0.0129794 0)
(-0.133602 -0.042753 0)
(-0.124805 -0.0698883 0)
(-0.111262 -0.0922076 0)
(-0.09356 -0.107493 0)
(-0.0727372 -0.113625 0)
(-0.0503726 -0.108809 0)
(-0.0287653 -0.0918983 0)
(-0.0113666 -0.0628499 0)
(-0.00212043 -0.0233101 0)
(-0.00293654 0.036261 0)
(-0.0147051 0.0928151 0)
(-0.0357048 0.131307 0)
(-0.0608499 0.151983 0)
(-0.0862389 0.156651 0)
(-0.109698 0.147736 0)
(-0.129938 0.127784 0)
(-0.146167 0.0992589 0)
(-0.15792 0.0644692 0)
(-0.164902 0.0255951 0)
(-0.166876 -0.0152252 0)
(-0.163609 -0.0557754 0)
(-0.154887 -0.0936351 0)
(-0.140606 -0.126076 0)
(-0.120936 -0.150021 0)
(-0.096555 -0.162125 0)
(-0.0689098 -0.159024 0)
(-0.0406949 -0.137821 0)
(-0.0167657 -0.0969141 0)
(-0.00332442 -0.0372288 0)
(-0.00432967 0.0539764 0)
(-0.020087 0.133323 0)
(-0.0460808 0.183238 0)
(-0.0749571 0.2067 0)
(-0.101927 0.208418 0)
(-0.125093 0.193153 0)
(-0.143878 0.165074 0)
(-0.158283 0.127613 0)
(-0.168553 0.0835357 0)
(-0.17493 0.0351087 0)
(-0.177476 -0.0156637 0)
(-0.175976 -0.066767 0)
(-0.169926 -0.115882 0)
(-0.158612 -0.160088 0)
(-0.141319 -0.195596 0)
(-0.117663 -0.217601 0)
(-0.088092 -0.220357 0)
(-0.0548991 -0.197681 0)
(-0.024164 -0.144229 0)
(-0.00523755 -0.0579248 0)
(-0.00671115 0.0788172 0)
(-0.0273748 0.184296 0)
(-0.0564091 0.24224 0)
(-0.0837235 0.262751 0)
(-0.104691 0.256218 0)
(-0.119152 0.2311 0)
(-0.128415 0.193623 0)
(-0.134066 0.148083 0)
(-0.137576 0.0972936 0)
(-0.140057 0.0430466 0)
(-0.142098 -0.0134387 0)
(-0.143669 -0.0710795 0)
(-0.144054 -0.128462 0)
(-0.14186 -0.183313 0)
(-0.135116 -0.23188 0)
(-0.121555 -0.26828 0)
(-0.0992002 -0.28395 0)
(-0.0679957 -0.267565 0)
(-0.0335364 -0.206106 0)
(-0.00832438 -0.088404 0)
(-0.0110105 0.11815 0)
(-0.0361421 0.245839 0)
(-0.0590612 0.296785 0)
(-0.0701748 0.300709 0)
(-0.0692311 0.277409 0)
(-0.0603716 0.239306 0)
(-0.0479011 0.193854 0)
(-0.0353004 0.145113 0)
(-0.0251898 0.0949206 0)
(-0.0193832 0.043758 0)
(-0.0189341 -0.00865194 0)
(-0.0241348 -0.0628822 0)
(-0.0344408 -0.119328 0)
(-0.0483129 -0.177603 0)
(-0.063014 -0.23563 0)
(-0.0744635 -0.288321 0)
(-0.0773788 -0.325853 0)
(-0.0666184 -0.331735 0)
(-0.0418038 -0.280543 0)
(-0.0129532 -0.136375 0)
(-0.0139843 0.18352 0)
(-0.0329034 0.302974 0)
(-0.0154607 0.310285 0)
(0.0249263 0.276821 0)
(0.0733492 0.230844 0)
(0.121525 0.183644 0)
(0.164821 0.139656 0)
(0.20034 0.099942 0)
(0.226309 0.0638902 0)
(0.241659 0.0300981 0)
(0.245709 -0.00324332 0)
(0.238006 -0.0382071 0)
(0.21832 -0.0770372 0)
(0.186855 -0.121887 0)
(0.144726 -0.17415 0)
(0.0945942 -0.232977 0)
(0.0414335 -0.292592 0)
(-0.00552067 -0.337794 0)
(-0.0292036 -0.334015 0)
(-0.0131269 -0.202679 0)
(0.111725 0.111738 0)
(0.169585 0.163762 0)
(0.284636 0.152279 0)
(0.400932 0.124569 0)
(0.493947 0.0958242 0)
(0.564711 0.0706717 0)
(0.617563 0.0501867 0)
(0.655566 0.0339647 0)
(0.680926 0.0210184 0)
(0.6952 0.0101931 0)
(0.699193 0.000290248 0)
(0.692849 -0.00996251 0)
(0.675172 -0.0220119 0)
(0.644162 -0.0375298 0)
(0.596799 -0.0583297 0)
(0.52893 -0.0858525 0)
(0.434753 -0.119791 0)
(0.311188 -0.154979 0)
(0.183541 -0.17298 0)
(0.115384 -0.119798 0)
)
;

boundaryField
{
    movingWall
    {
        type            fixedValue;
        value           uniform (1 0 0);
    }
    fixedWalls
    {
        type            noSlip;
    }
    frontAndBack
    {
        type            empty;
    }
}


// ************************************************************************* //
