/*--------------------------------*- C++ -*----------------------------------*\
  =========                 |
  \\      /  F ield         | OpenFOAM: The Open Source CFD Toolbox
   \\    /   O peration     | Website:  https://openfoam.org
    \\  /    A nd           | Version:  7
     \\/     M anipulation  |
\*---------------------------------------------------------------------------*/
FoamFile
{
    version     2.0;
    format      ascii;
    class       volScalarField;
    location    "0.2";
    object      p;
}
// * * * * * * * * * * * * * * * * * * * * * * * * * * * * * * * * * * * * * //

dimensions      [0 2 -2 0 0 0 0];

internalField   nonuniform List<scalar> 
400
(
-2.31345e-08
-0.000413254
-0.000773135
-0.000942436
-0.000847633
-0.000467352
0.000191875
0.00110972
0.00225511
0.00358301
0.00502945
0.00650833
0.00791222
0.00912169
0.0100224
0.0105302
0.0106201
0.0103518
0.00987842
0.00943535
0.000395424
-2.93304e-05
-0.000299604
-0.000374823
-0.000236841
0.000130691
0.000727812
0.00154216
0.00255045
0.00371544
0.00498222
0.00627741
0.00750825
0.0085737
0.00937866
0.00985514
0.00998619
0.00982076
0.00945308
0.00900513
0.000758738
0.000201266
-8.61064e-05
-0.000139595
6.66275e-06
0.000358021
0.000914645
0.00166853
0.00260328
0.00368955
0.00488037
0.00610857
0.00728706
0.00831706
0.00910238
0.00957078
0.00969927
0.00952601
0.00910436
0.00849538
0.000942405
0.000210548
-0.000143618
-0.000214742
-8.12016e-05
0.000251345
0.00078156
0.00150488
0.00241181
0.00348084
0.00467138
0.00592256
0.00714302
0.00822579
0.00905937
0.0095522
0.0096645
0.00942416
0.00886331
0.0080234
0.000829375
-7.35577e-05
-0.000505296
-0.000607339
-0.00049477
-0.00018172
0.000330264
0.00104118
0.00194962
0.00304271
0.00428485
0.00562982
0.00696981
0.00818486
0.0091376
0.00970367
0.009815
0.00948623
0.00873989
0.007623
0.000332331
-0.000735261
-0.00124757
-0.00138662
-0.00129949
-0.00100658
-0.000507909
0.00020288
0.00113464
0.00228808
0.00364469
0.00513534
0.00667481
0.0081164
0.00928326
0.0100007
0.0101539
0.00973317
0.00875203
0.00727977
-0.000619646
-0.00185232
-0.00244815
-0.00262877
-0.00257242
-0.00230491
-0.00182343
-0.00111323
-0.000152117
0.00107657
0.0025686
0.00427703
0.00610634
0.00789084
0.00940509
0.0104005
0.0106844
0.0101956
0.00892079
0.00695879
-0.00209538
-0.00350147
-0.00418578
-0.00441375
-0.00439812
-0.00417109
-0.00372651
-0.00303939
-0.00207042
-0.000780031
0.000853923
0.0028127
0.00501317
0.00727743
0.00932453
0.0108019
0.0113885
0.0109151
0.00928942
0.00663246
-0.00416977
-0.00576519
-0.00654515
-0.00682832
-0.00686992
-0.00671192
-0.00634595
-0.00573606
-0.00482256
-0.00353518
-0.00181066
0.000380953
0.00300088
0.00588657
0.00871086
0.0109875
0.0121918
0.0119412
0.00994848
0.00631401
-0.00692857
-0.00873603
-0.00961805
-0.0099627
-0.0100819
-0.010034
-0.00981209
-0.00937095
-0.00862979
-0.00748176
-0.00580651
-0.00349432
-0.000490631
0.00311691
0.00700123
0.0105342
0.012894
0.0133088
0.011064
0.00611171
-0.0104739
-0.0125219
-0.0135031
-0.0139023
-0.0141119
-0.0142177
-0.0142206
-0.0140716
-0.0136731
-0.0128815
-0.0115074
-0.00932622
-0.00612896
-0.00182406
0.00336883
0.00873535
0.0130812
0.0149922
0.0129109
0.00633135
-0.0149359
-0.0172563
-0.018305
-0.0187137
-0.0189945
-0.0192759
-0.0195748
-0.0198476
-0.0199902
-0.0198311
-0.0191116
-0.0174693
-0.0144645
-0.00970636
-0.00312109
0.00466401
0.0121105
0.0168796
0.0159259
0.00768022
-0.0205035
-0.0231191
-0.0241349
-0.0244238
-0.0246823
-0.0250986
-0.025712
-0.0264925
-0.0273433
-0.0280816
-0.0283928
-0.0277707
-0.0254952
-0.0207748
-0.0130024
-0.00240893
0.00936459
0.0188946
0.0208482
0.011663
-0.027498
-0.0303801
-0.031109
-0.0309875
-0.0309969
-0.0313939
-0.0322341
-0.0335016
-0.0351146
-0.0368934
-0.0384864
-0.0392605
-0.0382119
-0.0340977
-0.0255905
-0.0121566
0.00495618
0.0214468
0.0290761
0.0212218
-0.0365528
-0.0394775
-0.0393319
-0.0382318
-0.0375682
-0.0376367
-0.0384752
-0.0400614
-0.0423172
-0.0450618
-0.0479105
-0.0501311
-0.0505047
-0.0472237
-0.0383352
-0.0222704
0.000721294
0.0262173
0.0432436
0.0413204
-0.0490274
-0.0511431
-0.0488226
-0.0457494
-0.0437579
-0.0430412
-0.043533
-0.0451516
-0.0477782
-0.0511928
-0.0549462
-0.0581851
-0.0594701
-0.0566521
-0.0471092
-0.0283044
0.000863558
0.0369767
0.0677456
0.0788412
-0.0680114
-0.0665799
-0.0594032
-0.0528205
-0.0486465
-0.0466192
-0.0464109
-0.047779
-0.0504783
-0.0541724
-0.0582785
-0.0617677
-0.0629615
-0.059388
-0.0478841
-0.0251329
0.0112702
0.0598246
0.1094
0.143645
-0.101602
-0.0873562
-0.0703892
-0.0582677
-0.0509699
-0.0472126
-0.0461564
-0.0472075
-0.0498632
-0.0535762
-0.057561
-0.0605606
-0.0606239
-0.0548903
-0.0396647
-0.0107453
0.0357104
0.100652
0.178211
0.257481
-0.175131
-0.112541
-0.0756678
-0.0566169
-0.0465652
-0.0418006
-0.040704
-0.0421449
-0.0452533
-0.0492581
-0.0532075
-0.0556794
-0.0545274
-0.0464631
-0.027441
0.00810796
0.0668286
0.155648
0.282251
0.456712
-0.341845
-0.133954
-0.0565501
-0.0357556
-0.028268
-0.0258792
-0.0271957
-0.0308655
-0.0357728
-0.0410902
-0.0458902
-0.0487906
-0.0477311
-0.0398178
-0.0202303
0.0173678
0.0831848
0.196523
0.393072
0.722361
)
;

boundaryField
{
    movingWall
    {
        type            zeroGradient;
    }
    fixedWalls
    {
        type            zeroGradient;
    }
    frontAndBack
    {
        type            empty;
    }
}


// ************************************************************************* //
