/*--------------------------------*- C++ -*----------------------------------*\
  =========                 |
  \\      /  F ield         | OpenFOAM: The Open Source CFD Toolbox
   \\    /   O peration     | Website:  https://openfoam.org
    \\  /    A nd           | Version:  7
     \\/     M anipulation  |
\*---------------------------------------------------------------------------*/
FoamFile
{
    version     2.0;
    format      ascii;
    class       surfaceScalarField;
    location    "0.2";
    object      phi;
}
// * * * * * * * * * * * * * * * * * * * * * * * * * * * * * * * * * * * * * //

dimensions      [0 3 -1 0 0 0 0];

internalField   nonuniform List<scalar> 
760
(
1.43414e-09
-1.43304e-09
-3.40117e-08
3.54455e-08
-1.02903e-07
6.88909e-08
-1.90965e-07
8.80621e-08
-2.86143e-07
9.51768e-08
-3.79435e-07
9.32917e-08
-4.64066e-07
8.46312e-08
-5.34514e-07
7.04481e-08
-5.85789e-07
5.12753e-08
-6.13197e-07
2.74076e-08
-6.1264e-07
-5.56761e-10
-5.81364e-07
-3.12758e-08
-5.19176e-07
-6.21877e-08
-4.29628e-07
-8.95486e-08
-3.20948e-07
-1.0868e-07
-2.06174e-07
-1.14774e-07
-1.02009e-07
-1.04165e-07
-2.62237e-08
-7.57854e-08
7.02405e-09
-3.32476e-08
7.02405e-09
-3.58837e-08
3.44503e-08
-1.50925e-07
1.50486e-07
-3.27365e-07
2.4533e-07
-5.40869e-07
3.01566e-07
-7.68061e-07
3.22369e-07
-9.89299e-07
3.1453e-07
-1.18858e-06
2.83913e-07
-1.3525e-06
2.3437e-07
-1.46932e-06
1.68095e-07
-1.5287e-06
8.67913e-08
-1.52244e-06
-6.82345e-09
-1.44571e-06
-1.08007e-07
-1.29953e-06
-2.08366e-07
-1.09273e-06
-2.9635e-07
-8.43485e-07
-3.57923e-07
-5.79177e-07
-3.79082e-07
-3.33619e-07
-3.49722e-07
-1.41245e-07
-2.68159e-07
-2.83077e-08
-1.46185e-07
-2.12837e-08
-7.4802e-08
1.09252e-07
-2.63737e-07
3.3942e-07
-5.32089e-07
5.13682e-07
-8.45829e-07
6.15305e-07
-1.17421e-06
6.5075e-07
-1.4912e-06
6.31522e-07
-1.77517e-06
5.67882e-07
-2.00775e-06
4.66946e-07
-2.17284e-06
3.33193e-07
-2.25646e-06
1.70404e-07
-2.24747e-06
-1.58072e-08
-2.13952e-06
-2.15956e-07
-1.93377e-06
-4.14116e-07
-1.64174e-06
-5.88378e-07
-1.2874e-06
-7.12266e-07
-9.07164e-07
-7.59318e-07
-5.46519e-07
-7.10367e-07
-2.52609e-07
-5.62069e-07
-6.37816e-08
-3.35013e-07
-8.50655e-08
-1.06665e-07
2.15917e-07
-3.61063e-07
5.93818e-07
-7.10473e-07
8.63091e-07
-1.11046e-06
1.0153e-06
-1.52395e-06
1.06424e-06
-1.92059e-06
1.02816e-06
-2.27539e-06
9.22685e-07
-2.56703e-06
7.58589e-07
-2.77654e-06
5.42701e-07
-2.88693e-06
2.8079e-07
-2.88417e-06
-1.85628e-08
-2.7588e-06
-3.41325e-07
-2.5101e-06
-6.62817e-07
-2.14943e-06
-9.49053e-07
-1.70372e-06
-1.15797e-06
-1.21667e-06
-1.24637e-06
-7.45507e-07
-1.18153e-06
-3.52476e-07
-9.55099e-07
-9.21429e-08
-5.95347e-07
-1.77208e-07
-1.33394e-07
3.4931e-07
-4.46289e-07
9.06713e-07
-8.69417e-07
1.28622e-06
-1.34799e-06
1.49387e-06
-1.8391e-06
1.55535e-06
-2.30928e-06
1.49834e-06
-2.73165e-06
1.34505e-06
-3.08323e-06
1.11017e-06
-3.34296e-06
8.02436e-07
-3.49076e-06
4.28582e-07
-3.50908e-06
-2.3959e-10
-3.38252e-06
-4.67883e-07
-3.10581e-06
-9.39531e-07
-2.68653e-06
-1.36833e-06
-2.15187e-06
-1.69263e-06
-1.55213e-06
-1.84612e-06
-9.58959e-07
-1.7747e-06
-4.55377e-07
-1.45868e-06
-1.18363e-07
-9.32361e-07
-2.95571e-07
-1.57653e-07
5.06964e-07
-5.25427e-07
1.27449e-06
-1.01887e-06
1.77966e-06
-1.57322e-06
2.04822e-06
-2.14034e-06
2.12247e-06
-2.68458e-06
2.04258e-06
-3.17835e-06
1.83883e-06
-3.59812e-06
1.52994e-06
-3.92134e-06
1.12566e-06
-4.12491e-06
6.32147e-07
-4.18436e-06
5.92154e-08
-4.07877e-06
-5.73479e-07
-3.79217e-06
-1.22612e-06
-3.32396e-06
-1.83654e-06
-2.69745e-06
-2.31914e-06
-1.96828e-06
-2.57528e-06
-1.22603e-06
-2.51695e-06
-5.83166e-07
-2.10154e-06
-1.49696e-07
-1.36583e-06
-4.45267e-07
-1.81669e-07
6.88634e-07
-6.04167e-07
1.69698e-06
-1.16808e-06
2.34357e-06
-1.79892e-06
2.67906e-06
-2.44395e-06
2.7675e-06
-3.0664e-06
2.66503e-06
-3.63928e-06
2.4117e-06
-4.1397e-06
2.03036e-06
-4.54444e-06
1.53041e-06
-4.82707e-06
9.14768e-07
-4.95679e-06
1.88935e-07
-4.90108e-06
-6.29181e-07
-4.63023e-06
-1.49697e-06
-4.12845e-06
-2.33833e-06
-3.4084e-06
-3.0392e-06
-2.52694e-06
-3.45674e-06
-1.59401e-06
-3.44988e-06
-7.63059e-07
-2.93249e-06
-1.94763e-07
-1.93413e-06
-6.40031e-07
-2.07162e-07
8.95796e-07
-6.87061e-07
2.17688e-06
-1.32413e-06
2.98064e-06
-2.03389e-06
3.38883e-06
-2.75963e-06
3.49323e-06
-3.46477e-06
3.37017e-06
-4.12453e-06
3.07146e-06
-4.71838e-06
2.62421e-06
-5.22389e-06
2.03591e-06
-5.61214e-06
1.30303e-06
-5.84526e-06
4.22058e-07
-5.87722e-06
-5.97224e-07
-5.65892e-06
-1.71528e-06
-5.15124e-06
-2.84601e-06
-4.34578e-06
-3.84465e-06
-3.29144e-06
-4.51108e-06
-2.11665e-06
-4.62467e-06
-1.02821e-06
-4.02093e-06
-2.64312e-07
-2.69802e-06
-9.04344e-07
-2.35477e-07
1.13127e-06
-7.77532e-07
2.71894e-06
-1.49157e-06
3.69468e-06
-2.28214e-06
4.1794e-06
-3.08913e-06
4.30022e-06
-3.87769e-06
4.15873e-06
-4.62727e-06
3.82104e-06
-5.32194e-06
3.31888e-06
-5.94235e-06
2.65632e-06
-6.45926e-06
1.81994e-06
-6.82881e-06
7.91607e-07
-6.99108e-06
-4.34961e-07
-6.87364e-06
-1.83272e-06
-6.40562e-06
-3.31403e-06
-5.54391e-06
-4.70636e-06
-4.31298e-06
-5.74202e-06
-2.8484e-06
-6.08924e-06
-1.41773e-06
-5.4516e-06
-3.7237e-07
-3.74338e-06
-1.27671e-06
-2.68004e-07
1.39928e-06
-8.78607e-07
3.32954e-06
-1.67312e-06
4.48919e-06
-2.54316e-06
5.04944e-06
-3.42577e-06
5.18284e-06
-4.28957e-06
5.02252e-06
-5.12051e-06
4.65198e-06
-5.90992e-06
4.1083e-06
-6.64474e-06
3.39114e-06
-7.29904e-06
2.47424e-06
-7.82679e-06
1.31936e-06
-8.15719e-06
-1.04568e-07
-8.19476e-06
-1.79514e-06
-7.83156e-06
-3.67722e-06
-6.97561e-06
-5.56231e-06
-5.60299e-06
-7.11464e-06
-3.82941e-06
-7.86282e-06
-1.97381e-06
-7.3072e-06
-5.3772e-07
-5.17948e-06
-1.81443e-06
-3.06962e-07
1.70624e-06
-9.94403e-07
4.01698e-06
-1.87109e-06
5.36588e-06
-2.81283e-06
5.99117e-06
-3.75449e-06
6.1245e-06
-4.67015e-06
5.93818e-06
-5.55462e-06
5.53645e-06
-6.40924e-06
4.96292e-06
-7.23085e-06
4.21275e-06
-8.00204e-06
3.24543e-06
-8.68162e-06
1.99894e-06
-9.19572e-06
4.09539e-07
-9.43392e-06
-1.55694e-06
-9.25366e-06
-3.85748e-06
-8.50543e-06
-6.31054e-06
-7.08964e-06
-8.53044e-06
-5.05598e-06
-9.89648e-06
-2.73202e-06
-9.63116e-06
-7.85433e-07
-7.12606e-06
-2.59987e-06
-3.56848e-07
2.06309e-06
-1.13262e-06
4.79275e-06
-2.08981e-06
6.32306e-06
-3.08488e-06
6.98625e-06
-4.05227e-06
7.09188e-06
-4.97421e-06
6.86012e-06
-5.85669e-06
6.41893e-06
-6.71341e-06
5.81964e-06
-7.55466e-06
5.054e-06
-8.37748e-06
4.06824e-06
-9.15504e-06
2.77651e-06
-9.82466e-06
1.07916e-06
-1.02771e-05
-1.10455e-06
-1.03516e-05
-3.78293e-06
-9.84632e-06
-6.81582e-06
-8.56577e-06
-9.81099e-06
-6.43424e-06
-1.2028e-05
-3.6982e-06
-1.23672e-05
-1.14658e-06
-9.67769e-06
-3.74645e-06
-4.2713e-07
2.49022e-06
-1.30844e-06
5.67406e-06
-2.3383e-06
7.35293e-06
-3.35166e-06
7.99961e-06
-4.28745e-06
8.02766e-06
-5.14069e-06
7.71336e-06
-5.93131e-06
7.20955e-06
-6.68726e-06
6.57559e-06
-7.43482e-06
5.80156e-06
-8.19078e-06
4.8242e-06
-8.95295e-06
3.53868e-06
-9.68723e-06
1.81344e-06
-1.03092e-05
-4.82634e-07
-1.06728e-05
-3.41931e-06
-1.05494e-05
-6.9392e-06
-9.65105e-06
-1.07093e-05
-7.72465e-06
-1.39544e-05
-4.80472e-06
-1.52871e-05
-1.64985e-06
-1.28326e-05
-5.3963e-06
-5.37379e-07
3.0276e-06
-1.55018e-06
6.68686e-06
-2.63181e-06
8.43455e-06
-3.60054e-06
8.96834e-06
-4.41285e-06
8.83998e-06
-5.08566e-06
8.38617e-06
-5.65726e-06
7.78115e-06
-6.17155e-06
7.08988e-06
-6.67188e-06
6.30189e-06
-7.19734e-06
5.34967e-06
-7.77732e-06
4.11866e-06
-8.4216e-06
2.45773e-06
-9.09601e-06
1.91771e-07
-9.71055e-06
-2.80476e-06
-1.00591e-05
-6.59069e-06
-9.80378e-06
-1.09646e-05
-8.50363e-06
-1.52546e-05
-5.8481e-06
-1.79427e-05
-2.29332e-06
-1.63873e-05
-7.68962e-06
-7.26729e-07
3.75433e-06
-1.90514e-06
7.86528e-06
-2.98465e-06
9.51406e-06
-3.79443e-06
9.77812e-06
-4.33853e-06
9.38408e-06
-4.6728e-06
8.72043e-06
-4.86157e-06
7.96993e-06
-4.96688e-06
7.19519e-06
-5.04812e-06
6.38313e-06
-5.16457e-06
5.46612e-06
-5.37621e-06
4.3303e-06
-5.7391e-06
2.82061e-06
-6.29706e-06
7.49735e-07
-7.03344e-06
-2.06839e-06
-7.83889e-06
-5.78524e-06
-8.40973e-06
-1.03938e-05
-8.18141e-06
-1.54829e-05
-6.43292e-06
-1.96912e-05
-2.98651e-06
-1.98337e-05
-1.06761e-05
-1.06792e-06
4.82224e-06
-2.43349e-06
9.23084e-06
-3.36785e-06
1.04484e-05
-3.8012e-06
1.02115e-05
-3.84534e-06
9.42822e-06
-3.62171e-06
8.4968e-06
-3.23056e-06
7.57878e-06
-2.75299e-06
6.71762e-06
-2.25997e-06
5.89011e-06
-1.82249e-06
5.02864e-06
-1.5203e-06
4.0281e-06
-1.44663e-06
2.74695e-06
-1.70622e-06
1.00932e-06
-2.38724e-06
-1.38737e-06
-3.5145e-06
-4.65799e-06
-4.92959e-06
-8.97868e-06
-6.0983e-06
-1.43142e-05
-5.9679e-06
-1.98216e-05
-3.47768e-06
-2.2324e-05
-1.41538e-05
-1.67259e-06
6.49484e-06
-3.12133e-06
1.06796e-05
-3.52995e-06
1.0857e-05
-3.16518e-06
9.84669e-06
-2.34301e-06
8.60605e-06
-1.27417e-06
7.42796e-06
-9.3064e-08
6.39768e-06
1.11073e-06
5.51382e-06
2.26881e-06
4.73203e-06
3.31508e-06
3.98237e-06
4.1698e-06
3.17338e-06
4.72679e-06
2.18995e-06
4.84545e-06
8.90663e-07
4.3565e-06
-8.98416e-07
3.09496e-06
-3.39645e-06
9.95562e-07
-6.87928e-06
-1.64417e-06
-1.16744e-05
-3.73274e-06
-1.7733e-05
-3.33189e-06
-2.27248e-05
-1.74857e-05
-2.60678e-06
9.10162e-06
-3.39335e-06
1.14662e-05
-2.33145e-06
9.79514e-06
-4.40994e-07
7.95624e-06
1.71224e-06
6.45282e-06
3.88356e-06
5.25664e-06
5.96277e-06
4.31846e-06
7.89583e-06
3.58077e-06
9.64999e-06
2.97787e-06
1.11902e-05
2.44216e-06
1.24605e-05
1.90306e-06
1.33683e-05
1.28216e-06
1.37695e-05
4.89481e-07
1.34649e-05
-5.93799e-07
1.21903e-05
-2.12186e-06
9.65404e-06
-4.34302e-06
5.73941e-06
-7.7598e-06
1.15693e-06
-1.31505e-05
-1.70239e-06
-1.98655e-05
-1.91881e-05
-2.54213e-06
1.16437e-05
4.48498e-08
8.87918e-06
4.26212e-06
5.57788e-06
8.25438e-06
3.96398e-06
1.17594e-05
2.94783e-06
1.47948e-05
2.22124e-06
1.74087e-05
1.70452e-06
1.96538e-05
1.33569e-06
2.15726e-05
1.05908e-06
2.31842e-05
8.30581e-07
2.44738e-05
6.13394e-07
2.53823e-05
3.73715e-07
2.57857e-05
8.60076e-08
2.55233e-05
-3.31323e-07
2.42949e-05
-8.93519e-07
2.16873e-05
-1.73543e-06
1.71465e-05
-3.21903e-06
1.03772e-05
-6.38114e-06
2.96208e-06
-1.24504e-05
-1.6226e-05
1.16437e-05
2.05229e-05
2.61008e-05
3.00648e-05
3.30126e-05
3.52339e-05
3.69384e-05
3.82741e-05
3.93331e-05
4.01637e-05
4.07771e-05
4.11508e-05
4.12368e-05
4.09055e-05
4.0012e-05
3.82766e-05
3.50575e-05
2.86764e-05
1.6226e-05
)
;

boundaryField
{
    movingWall
    {
        type            calculated;
        value           uniform 0;
    }
    fixedWalls
    {
        type            calculated;
        value           uniform 0;
    }
    frontAndBack
    {
        type            empty;
        value           nonuniform 0();
    }
}


// ************************************************************************* //
