/*--------------------------------*- C++ -*----------------------------------*\
  =========                 |
  \\      /  F ield         | OpenFOAM: The Open Source CFD Toolbox
   \\    /   O peration     | Website:  https://openfoam.org
    \\  /    A nd           | Version:  7
     \\/     M anipulation  |
\*---------------------------------------------------------------------------*/
FoamFile
{
    version     2.0;
    format      ascii;
    class       volVectorField;
    location    "0.2";
    object      U;
}
// * * * * * * * * * * * * * * * * * * * * * * * * * * * * * * * * * * * * * //

dimensions      [0 1 -1 0 0 0 0];

internalField   nonuniform List<vector> 
400
(
(0.000110659 -0.000113248 0)
(-0.000160547 0.000170517 0)
(-0.00126501 0.000447494 0)
(-0.00288709 0.00060432 0)
(-0.00476183 0.000663268 0)
(-0.00668032 0.000654733 0)
(-0.00848668 0.000598779 0)
(-0.0100603 0.00050519 0)
(-0.0112978 0.000376588 0)
(-0.0121021 0.000213009 0)
(-0.0123833 1.6687e-05 0)
(-0.0120694 -0.000204012 0)
(-0.0111264 -0.000430588 0)
(-0.00958418 -0.000634142 0)
(-0.00755887 -0.000777209 0)
(-0.0052657 -0.000819938 0)
(-0.00300952 -0.000730177 0)
(-0.00114451 -0.000495344 0)
(-1.05022e-05 -0.000144368 0)
(0.000167229 0.000154961 0)
(-0.000173958 0.000153834 0)
(-0.00152364 0.00149324 0)
(-0.00453815 0.00266059 0)
(-0.0085674 0.00335244 0)
(-0.0130773 0.00361511 0)
(-0.0176449 0.00354296 0)
(-0.0219191 0.00321188 0)
(-0.0256094 0.00266795 0)
(-0.0284674 0.00193382 0)
(-0.0302714 0.00102458 0)
(-0.0308314 -3.35721e-05 0)
(-0.0300091 -0.00118636 0)
(-0.027757 -0.00233879 0)
(-0.0241654 -0.00335312 0)
(-0.0195012 -0.00406021 0)
(-0.0142266 -0.00428907 0)
(-0.00896921 -0.00391336 0)
(-0.00443175 -0.0029063 0)
(-0.00129095 -0.00141455 0)
(-7.5219e-05 1.78374e-05 0)
(-0.000485489 0.00129385 0)
(-0.00290116 0.00456755 0)
(-0.0076258 0.00715899 0)
(-0.0136365 0.00869619 0)
(-0.0201999 0.00925715 0)
(-0.0267684 0.00901531 0)
(-0.0328744 0.00812635 0)
(-0.0381219 0.00669662 0)
(-0.0421695 0.00479068 0)
(-0.044715 0.00246151 0)
(-0.0455016 -0.000211312 0)
(-0.0443437 -0.00308665 0)
(-0.0411764 -0.00593231 0)
(-0.0361151 -0.00842475 0)
(-0.0295096 -0.0101752 0)
(-0.0219712 -0.0107978 0)
(-0.0143375 -0.0100171 0)
(-0.00755428 -0.00779298 0)
(-0.00258617 -0.00445152 0)
(-0.000338786 -0.00092416 0)
(-0.00073076 0.00313315 0)
(-0.00406826 0.00905309 0)
(-0.010316 0.0134082 0)
(-0.0180545 0.0159198 0)
(-0.0263606 0.0167688 0)
(-0.0345965 0.0162403 0)
(-0.0422239 0.0145873 0)
(-0.0487854 0.0119867 0)
(-0.0538822 0.00855249 0)
(-0.0571541 0.00438219 0)
(-0.0582847 -0.000381937 0)
(-0.0570263 -0.00549822 0)
(-0.0532599 -0.0105685 0)
(-0.0470754 -0.0150411 0)
(-0.0388448 -0.0182476 0)
(-0.0292787 -0.0195166 0)
(-0.0194037 -0.0183566 0)
(-0.0104342 -0.0146719 0)
(-0.00368865 -0.00895521 0)
(-0.000522699 -0.00249556 0)
(-0.000926744 0.00554608 0)
(-0.00506838 0.014751 0)
(-0.0126965 0.0211622 0)
(-0.0220095 0.0247343 0)
(-0.0319014 0.0258405 0)
(-0.0416616 0.0249257 0)
(-0.0507093 0.0223617 0)
(-0.0585552 0.0184018 0)
(-0.0647656 0.0132049 0)
(-0.068931 0.00690194 0)
(-0.0706676 -0.000315069 0)
(-0.0696317 -0.00809789 0)
(-0.0655948 -0.0158893 0)
(-0.0585529 -0.0228752 0)
(-0.0488316 -0.0280398 0)
(-0.0372003 -0.0303247 0)
(-0.0248922 -0.0289075 0)
(-0.0134776 -0.0235457 0)
(-0.00476443 -0.0148703 0)
(-0.000663667 -0.0045861 0)
(-0.00109942 0.00846088 0)
(-0.0059849 0.021565 0)
(-0.014921 0.0303342 0)
(-0.0257434 0.0350669 0)
(-0.0371729 0.0364205 0)
(-0.0484405 0.0350575 0)
(-0.0589461 0.0314953 0)
(-0.0681927 0.0260674 0)
(-0.0757315 0.018964 0)
(-0.0811094 0.0103242 0)
(-0.0838465 0.000357237 0)
(-0.0834725 -0.0105225 0)
(-0.0795886 -0.0216025 0)
(-0.0719901 -0.0317818 0)
(-0.060861 -0.0396125 0)
(-0.0469659 -0.043496 0)
(-0.031758 -0.042084 0)
(-0.0172888 -0.0348215 0)
(-0.00607805 -0.0224378 0)
(-0.000817871 -0.00721988 0)
(-0.00126915 0.0118514 0)
(-0.00689391 0.0294616 0)
(-0.0171376 0.0409006 0)
(-0.0294762 0.0469109 0)
(-0.0424651 0.0485302 0)
(-0.0552947 0.0467034 0)
(-0.06737 0.042125 0)
(-0.0782139 0.0352106 0)
(-0.0873831 0.026159 0)
(-0.0943907 0.0150752 0)
(-0.0986623 0.00212886 0)
(-0.0995491 -0.0122723 0)
(-0.0963923 -0.0272935 0)
(-0.088679 -0.0415437 0)
(-0.0763071 -0.0530486 0)
(-0.0599108 -0.0594572 0)
(-0.0411279 -0.0585859 0)
(-0.0226216 -0.0492674 0)
(-0.00795879 -0.0322228 0)
(-0.00104931 -0.0105773 0)
(-0.00145111 0.015731 0)
(-0.00785615 0.0384689 0)
(-0.0194645 0.0528948 0)
(-0.0333701 0.0603055 0)
(-0.0479659 0.0622275 0)
(-0.062423 0.0599637 0)
(-0.0761826 0.0544223 0)
(-0.0888218 0.0461021 0)
(-0.0999365 0.0351804 0)
(-0.109031 0.0216684 0)
(-0.115442 0.00561062 0)
(-0.118316 -0.0126798 0)
(-0.116663 -0.0323504 0)
(-0.109522 -0.051758 0)
(-0.0963126 -0.068324 0)
(-0.0773234 -0.0786857 0)
(-0.0542302 -0.0793689 0)
(-0.030377 -0.0680659 0)
(-0.0108223 -0.045199 0)
(-0.00143989 -0.0150302 0)
(-0.00165756 0.0201437 0)
(-0.00891975 0.0486645 0)
(-0.021987 0.0663884 0)
(-0.0375192 0.0753044 0)
(-0.053741 0.0775611 0)
(-0.0698295 0.0749099 0)
(-0.0852999 0.0685178 0)
(-0.0998268 0.0589708 0)
(-0.113092 0.0463926 0)
(-0.124638 0.0306316 0)
(-0.133748 0.0115004 0)
(-0.139378 -0.0109239 0)
(-0.140163 -0.0359239 0)
(-0.134581 -0.0617217 0)
(-0.121348 -0.085126 0)
(-0.100091 -0.101507 0)
(-0.072196 -0.105503 0)
(-0.0415633 -0.0927978 0)
(-0.015204 -0.0628258 0)
(-0.00210815 -0.0211962 0)
(-0.00190276 0.0251589 0)
(-0.0101332 0.0601616 0)
(-0.0247736 0.0814617 0)
(-0.041959 0.0919265 0)
(-0.0597317 0.0944987 0)
(-0.0773038 0.0914919 0)
(-0.0943067 0.0843866 0)
(-0.110563 0.0738671 0)
(-0.125898 0.0599759 0)
(-0.139962 0.0423307 0)
(-0.152062 0.0203952 0)
(-0.161037 -0.00616274 0)
(-0.165192 -0.0369761 0)
(-0.162396 -0.0703557 0)
(-0.150484 -0.102626 0)
(-0.128044 -0.127747 0)
(-0.0956099 -0.137821 0)
(-0.0571313 -0.125257 0)
(-0.0217885 -0.0870813 0)
(-0.00324137 -0.0300215 0)
(-0.00221224 0.0308788 0)
(-0.0115706 0.0731057 0)
(-0.0279079 0.098174 0)
(-0.0466937 0.110096 0)
(-0.0657673 0.112841 0)
(-0.0844126 0.109423 0)
(-0.102424 0.101702 0)
(-0.119821 0.0904792 0)
(-0.136635 0.0757027 0)
(-0.152711 0.0567099 0)
(-0.167502 0.0325143 0)
(-0.179883 0.00220054 0)
(-0.187994 -0.034477 0)
(-0.189223 -0.0762457 0)
(-0.180487 -0.11928 0)
(-0.159008 -0.156262 0)
(-0.123724 -0.176296 0)
(-0.0775706 -0.166965 0)
(-0.0313986 -0.120369 0)
(-0.00514714 -0.0429012 0)
(-0.00264044 0.0374674 0)
(-0.0133752 0.0876896 0)
(-0.0315408 0.116535 0)
(-0.0517349 0.129573 0)
(-0.0715825 0.132117 0)
(-0.0904997 0.128045 0)
(-0.108497 0.119666 0)
(-0.125835 0.107923 0)
(-0.142806 0.0926764 0)
(-0.159535 0.0729735 0)
(-0.175778 0.0473285 0)
(-0.190681 0.0141172 0)
(-0.202533 -0.0277656 0)
(-0.208586 -0.0778613 0)
(-0.205094 -0.13277 0)
(-0.187827 -0.184469 0)
(-0.153389 -0.219157 0)
(-0.102135 -0.218223 0)
(-0.0448357 -0.165125 0)
(-0.00831251 -0.0618288 0)
(-0.00330582 0.0452198 0)
(-0.0158364 0.104194 0)
(-0.0359633 0.136466 0)
(-0.0571382 0.149856 0)
(-0.0768145 0.151457 0)
(-0.0946622 0.146189 0)
(-0.110986 0.136857 0)
(-0.126327 0.124566 0)
(-0.141274 0.10912 0)
(-0.156306 0.089323 0)
(-0.171625 0.0632292 0)
(-0.18692 0.0284953 0)
(-0.201039 -0.0169857 0)
(-0.211689 -0.073969 0)
(-0.21508 -0.140215 0)
(-0.2059 -0.208101 0)
(-0.178064 -0.261972 0)
(-0.127688 -0.276679 0)
(-0.0623338 -0.222828 0)
(-0.0133971 -0.0894696 0)
(-0.00446134 0.0547083 0)
(-0.0195181 0.123047 0)
(-0.0416872 0.157723 0)
(-0.0629794 0.170028 0)
(-0.0808876 0.169428 0)
(-0.0955969 0.162029 0)
(-0.107843 0.151122 0)
(-0.1185 0.137965 0)
(-0.128471 0.122344 0)
(-0.138613 0.102916 0)
(-0.149656 0.0774263 0)
(-0.162036 0.0429691 0)
(-0.175568 -0.00350708 0)
(-0.189084 -0.0642544 0)
(-0.199672 -0.13886 0)
(-0.201938 -0.221624 0)
(-0.187594 -0.297263 0)
(-0.147552 -0.335784 0)
(-0.0823526 -0.292069 0)
(-0.0209683 -0.128821 0)
(-0.00662899 0.0670748 0)
(-0.025459 0.144888 0)
(-0.0494512 0.179676 0)
(-0.0690792 0.188456 0)
(-0.082522 0.183777 0)
(-0.091003 0.172931 0)
(-0.0959273 0.159563 0)
(-0.0985856 0.144995 0)
(-0.100197 0.129001 0)
(-0.101954 0.110203 0)
(-0.105061 0.0862554 0)
(-0.110714 0.0539919 0)
(-0.119944 0.00973274 0)
(-0.133131 -0.0500653 0)
(-0.149191 -0.127298 0)
(-0.164242 -0.219686 0)
(-0.169454 -0.315483 0)
(-0.151151 -0.384211 0)
(-0.099827 -0.366114 0)
(-0.0306712 -0.182163 0)
(-0.0108056 0.0846276 0)
(-0.0353451 0.170472 0)
(-0.0597578 0.200773 0)
(-0.0738325 0.202214 0)
(-0.0781076 0.191004 0)
(-0.0757561 0.175257 0)
(-0.0691683 0.158596 0)
(-0.0601278 0.142174 0)
(-0.0501216 0.125667 0)
(-0.0405392 0.107723 0)
(-0.0328612 0.0861109 0)
(-0.0288019 0.0577773 0)
(-0.030346 0.0189538 0)
(-0.0394888 -0.0345394 0)
(-0.0575774 -0.106658 0)
(-0.083736 -0.199303 0)
(-0.111384 -0.307535 0)
(-0.125159 -0.407245 0)
(-0.104966 -0.43148 0)
(-0.0396587 -0.249769 0)
(-0.0185416 0.112222 0)
(-0.0508843 0.199725 0)
(-0.0701588 0.216719 0)
(-0.0699337 0.205487 0)
(-0.056853 0.185308 0)
(-0.0370811 0.16386 0)
(-0.0140407 0.143926 0)
(0.0101707 0.126036 0)
(0.0340606 0.109555 0)
(0.0563515 0.0931203 0)
(0.0756455 0.0747563 0)
(0.0901453 0.0518546 0)
(0.0974319 0.021141 0)
(0.0944468 -0.0213667 0)
(0.0777456 -0.080386 0)
(0.044511 -0.161227 0)
(-0.00383623 -0.267515 0)
(-0.055666 -0.389411 0)
(-0.0840999 -0.467778 0)
(-0.0407196 -0.327094 0)
(-0.0304054 0.15966 0)
(-0.0682583 0.226849 0)
(-0.0629497 0.213754 0)
(-0.030348 0.184964 0)
(0.0119315 0.156324 0)
(0.05603 0.131354 0)
(0.0989403 0.110669 0)
(0.139262 0.0936871 0)
(0.176244 0.079279 0)
(0.209291 0.0660597 0)
(0.237569 0.0524112 0)
(0.259677 0.0364026 0)
(0.27331 0.01569 0)
(0.275181 -0.01268 0)
(0.260775 -0.0525073 0)
(0.224377 -0.109901 0)
(0.161107 -0.195062 0)
(0.0720168 -0.317696 0)
(-0.0198675 -0.446324 0)
(-0.0190349 -0.390142 0)
(-0.0271394 0.229317 0)
(-0.0396661 0.226748 0)
(0.0392673 0.166772 0)
(0.125883 0.125922 0)
(0.201975 0.0974021 0)
(0.267382 0.0761451 0)
(0.323702 0.0603117 0)
(0.37211 0.0484836 0)
(0.413575 0.0392996 0)
(0.448758 0.0315521 0)
(0.477754 0.024128 0)
(0.499897 0.0158953 0)
(0.513378 0.00560844 0)
(0.515537 -0.00801682 0)
(0.501902 -0.0271438 0)
(0.465698 -0.0555276 0)
(0.39741 -0.102581 0)
(0.283643 -0.191344 0)
(0.125295 -0.331073 0)
(0.0649451 -0.367992 0)
(0.262305 0.138276 0)
(0.326543 0.119576 0)
(0.458951 0.0784019 0)
(0.563842 0.0522799 0)
(0.634647 0.0360832 0)
(0.685156 0.0253169 0)
(0.723522 0.0180521 0)
(0.753459 0.0131481 0)
(0.777099 0.00974569 0)
(0.795778 0.00720242 0)
(0.8101 0.00502596 0)
(0.819976 0.00280856 0)
(0.824627 0.000140276 0)
(0.822451 -0.00313901 0)
(0.810591 -0.00770271 0)
(0.784766 -0.0145252 0)
(0.736659 -0.0260648 0)
(0.647991 -0.0511472 0)
(0.474826 -0.111159 0)
(0.341506 -0.155817 0)
)
;

boundaryField
{
    movingWall
    {
        type            fixedValue;
        value           uniform (1 0 0);
    }
    fixedWalls
    {
        type            noSlip;
    }
    frontAndBack
    {
        type            empty;
    }
}


// ************************************************************************* //
