/*--------------------------------*- C++ -*----------------------------------*\
  =========                 |
  \\      /  F ield         | OpenFOAM: The Open Source CFD Toolbox
   \\    /   O peration     | Website:  https://openfoam.org
    \\  /    A nd           | Version:  7
     \\/     M anipulation  |
\*---------------------------------------------------------------------------*/
FoamFile
{
    version     2.0;
    format      ascii;
    class       volScalarField;
    location    "0.4";
    object      p;
}
// * * * * * * * * * * * * * * * * * * * * * * * * * * * * * * * * * * * * * //

dimensions      [0 2 -2 0 0 0 0];

internalField   nonuniform List<scalar> 
400
(
5.74709e-09
-0.00337572
-0.00556092
-0.00661898
-0.00663751
-0.00574956
-0.00394539
-0.00104405
0.00329094
0.00955993
0.0184265
0.0306574
0.0469283
0.0674121
0.0911396
0.115284
0.135068
0.145341
0.144028
0.133608
0.000648476
-0.00231009
-0.00399272
-0.00481516
-0.00474812
-0.00382006
-0.00196686
0.00100406
0.00540526
0.01168
0.0204008
0.0322169
0.0476867
0.0669231
0.0890418
0.111512
0.130076
0.140227
0.140267
0.131375
0.00164216
-0.00140421
-0.00275432
-0.00338921
-0.00324961
-0.00230458
-0.000452859
0.00250368
0.00685049
0.0129765
0.021382
0.0326451
0.0472922
0.0654951
0.0865284
0.108156
0.126386
0.136862
0.137753
0.128626
0.00271433
-0.000788382
-0.00196895
-0.0024845
-0.00230482
-0.0013763
0.000420057
0.00327691
0.00744553
0.0132607
0.021166
0.0317119
0.045468
0.0627597
0.0831324
0.104635
0.123381
0.134796
0.136406
0.125926
0.00358915
-0.000537691
-0.00163114
-0.0020785
-0.00189147
-0.00100731
0.000697284
0.00339599
0.00729299
0.0126602
0.0198868
0.0295165
0.0422077
0.0585081
0.0783163
0.100041
0.119909
0.132973
0.135712
0.123638
0.00399915
-0.000817704
-0.00186368
-0.00227769
-0.00210442
-0.00127535
0.000325617
0.00283747
0.00640123
0.011214
0.0176079
0.0261308
0.0375574
0.0527043
0.0718925
0.0939961
0.115458
0.130938
0.13552
0.122094
0.00368323
-0.00182891
-0.00283127
-0.00321898
-0.00305259
-0.00225765
-0.000737018
0.00159654
0.00480453
0.00899799
0.014449
0.0217151
0.0317012
0.0455174
0.0639572
0.0864668
0.10987
0.128538
0.135867
0.121724
0.00237995
-0.00377808
-0.00469056
-0.00501153
-0.00479877
-0.00397126
-0.00246302
-0.000255263
0.00262009
0.00618052
0.0106372
0.0165605
0.0249863
0.0373195
0.0548481
0.0776803
0.103227
0.125802
0.136902
0.123154
-0.000183985
-0.00687282
-0.00757629
-0.00772073
-0.00734553
-0.00636376
-0.00475237
-0.00257455
3.62557e-05
0.00300341
0.00648164
0.0110565
0.0178872
0.0286542
0.045128
0.0681336
0.0958803
0.122971
0.13893
0.127266
-0.0043138
-0.0113177
-0.0115881
-0.0113543
-0.0106262
-0.00931215
-0.00744048
-0.00516292
-0.00271299
-0.000252213
0.00232972
0.00563903
0.0109468
0.0201756
0.0355355
0.0585725
0.0884682
0.120534
0.142444
0.135212
-0.0103817
-0.0173085
-0.0167716
-0.0158441
-0.0144945
-0.012623
-0.0103086
-0.00778608
-0.0053749
-0.00330074
-0.00147702
0.000734031
0.00470541
0.0125641
0.026894
0.0499155
0.0818746
0.119227
0.148154
0.148397
-0.0188875
-0.0250221
-0.0230943
-0.0210266
-0.0187158
-0.0160359
-0.0130972
-0.0101948
-0.00770474
-0.00588484
-0.00464383
-0.00329597
-0.000370891
0.00642919
0.0199905
0.0431236
0.0771279
0.119991
0.156986
0.168464
-0.0305616
-0.0345961
-0.0304104
-0.0266186
-0.0229592
-0.0192292
-0.0155213
-0.0121451
-0.0094887
-0.0078013
-0.0069542
-0.00619404
-0.0039518
0.00221831
0.0154434
0.039032
0.0752325
0.123868
0.170038
0.197331
-0.0465452
-0.0460807
-0.0384063
-0.0321863
-0.0267888
-0.021827
-0.0172845
-0.013414
-0.010559
-0.00891572
-0.00828651
-0.0078326
-0.00588218
0.000147405
0.0135852
0.0381687
0.0769454
0.131794
0.188414
0.237346
-0.0687117
-0.0593519
-0.0465279
-0.0371094
-0.0296572
-0.0234106
-0.0180956
-0.0138138
-0.0108029
-0.00916715
-0.00861724
-0.00821808
-0.0061968
0.000162658
0.0143764
0.0406013
0.0825506
0.14432
0.212894
0.291567
-0.10016
-0.0740107
-0.0539506
-0.0405806
-0.030933
-0.0235584
-0.0177051
-0.0132164
-0.0101751
-0.00857084
-0.00801718
-0.00748788
-0.00511951
0.00193036
0.0173664
0.0458204
0.0916886
0.161328
0.243638
0.364378
-0.145583
-0.0891628
-0.0595058
-0.0416431
-0.0299813
-0.0219273
-0.0159663
-0.0115906
-0.00871467
-0.00722297
-0.00665051
-0.00590486
-0.00305943
0.00483236
0.0216581
0.052617
0.102978
0.181817
0.28117
0.46233
-0.211326
-0.101639
-0.0603088
-0.0387827
-0.026072
-0.0182108
-0.0127928
-0.00894861
-0.00648429
-0.00523795
-0.0047173
-0.00381279
-0.000583591
0.00796949
0.0258649
0.0588717
0.113449
0.202851
0.327746
0.594419
-0.307062
-0.101397
-0.0483741
-0.0288567
-0.0179282
-0.0118345
-0.00790636
-0.00513048
-0.00338172
-0.00258043
-0.00230068
-0.00149473
0.0017178
0.0102975
0.0282788
0.0617231
0.11818
0.216352
0.375172
0.775764
-0.437234
-0.0778077
-0.0197978
-0.0112357
-0.0059155
-0.00332116
-0.00174001
-0.000460474
0.000342707
0.00052538
0.000349862
0.000726161
0.00341036
0.0112225
0.0281165
0.060013
0.114696
0.214664
0.402723
0.977225
)
;

boundaryField
{
    movingWall
    {
        type            zeroGradient;
    }
    fixedWalls
    {
        type            zeroGradient;
    }
    frontAndBack
    {
        type            empty;
    }
}


// ************************************************************************* //
