/*--------------------------------*- C++ -*----------------------------------*\
  =========                 |
  \\      /  F ield         | OpenFOAM: The Open Source CFD Toolbox
   \\    /   O peration     | Website:  https://openfoam.org
    \\  /    A nd           | Version:  7
     \\/     M anipulation  |
\*---------------------------------------------------------------------------*/
FoamFile
{
    version     2.0;
    format      ascii;
    class       surfaceScalarField;
    location    "0.4";
    object      phi;
}
// * * * * * * * * * * * * * * * * * * * * * * * * * * * * * * * * * * * * * //

dimensions      [0 3 -1 0 0 0 0];

internalField   nonuniform List<scalar> 
760
(
1.01357e-08
-1.01361e-08
-5.74824e-08
6.76182e-08
-1.6113e-07
1.03648e-07
-2.76495e-07
1.15364e-07
-3.94529e-07
1.18035e-07
-5.14772e-07
1.20242e-07
-6.4023e-07
1.25458e-07
-7.74438e-07
1.34208e-07
-9.19737e-07
1.45299e-07
-1.07533e-06
1.5559e-07
-1.23453e-06
1.59203e-07
-1.38135e-06
1.46816e-07
-1.48733e-06
1.05983e-07
-1.5115e-06
2.41704e-08
-1.40754e-06
-1.03956e-07
-1.14489e-06
-2.62655e-07
-7.43078e-07
-4.01809e-07
-3.02778e-07
-4.40301e-07
-3.30937e-10
-3.02447e-07
-3.31291e-10
-3.60933e-08
2.59573e-08
-2.3117e-07
2.62695e-07
-5.13552e-07
3.8603e-07
-8.29464e-07
4.31276e-07
-1.15491e-06
4.4348e-07
-1.4856e-06
4.50931e-07
-1.82614e-06
4.65998e-07
-2.18265e-06
4.90722e-07
-2.55757e-06
5.20219e-07
-2.94434e-06
5.42358e-07
-3.32117e-06
5.36034e-07
-3.64471e-06
4.70353e-07
-3.84643e-06
3.07708e-07
-3.83753e-06
1.52637e-08
-3.52858e-06
-4.12902e-07
-2.87281e-06
-9.1843e-07
-1.92727e-06
-1.34734e-06
-9.05712e-07
-1.46186e-06
-1.60269e-07
-1.04789e-06
-1.60601e-07
-1.08189e-07
1.34146e-07
-4.34647e-07
5.89153e-07
-8.80258e-07
8.3164e-07
-1.3721e-06
9.23117e-07
-1.87571e-06
9.47091e-07
-2.38291e-06
9.58127e-07
-2.89781e-06
9.80897e-07
-3.42646e-06
1.01938e-06
-3.96901e-06
1.06276e-06
-4.51209e-06
1.08544e-06
-5.02111e-06
1.04505e-06
-5.43375e-06
8.82997e-07
-5.65871e-06
5.32662e-07
-5.58485e-06
-5.85974e-08
-5.10818e-06
-8.89568e-07
-4.17953e-06
-1.84708e-06
-2.87262e-06
-2.65426e-06
-1.44822e-06
-2.88627e-06
-3.50886e-07
-2.14522e-06
-5.11487e-07
-1.88887e-07
3.23033e-07
-6.49211e-07
1.04948e-06
-1.24607e-06
1.4285e-06
-1.89076e-06
1.56781e-06
-2.54164e-06
1.59797e-06
-3.18767e-06
1.60416e-06
-3.83196e-06
1.62518e-06
-4.47953e-06
1.66695e-06
-5.12792e-06
1.71116e-06
-5.75867e-06
1.71619e-06
-6.32956e-06
1.61594e-06
-6.76962e-06
1.32306e-06
-6.98019e-06
7.43229e-07
-6.84605e-06
-1.92744e-07
-6.26111e-06
-1.4745e-06
-5.17163e-06
-2.93656e-06
-3.64102e-06
-4.18487e-06
-1.92906e-06
-4.59823e-06
-5.3173e-07
-3.54255e-06
-1.04322e-06
-2.71537e-07
5.9457e-07
-8.63838e-07
1.64178e-06
-1.59849e-06
2.16315e-06
-2.37144e-06
2.34075e-06
-3.1361e-06
2.36263e-06
-3.88001e-06
2.34807e-06
-4.60579e-06
2.35096e-06
-5.31788e-06
2.37904e-06
-6.01261e-06
2.40589e-06
-6.66987e-06
2.37344e-06
-7.24649e-06
2.19256e-06
-7.67301e-06
1.74958e-06
-7.85594e-06
9.26164e-07
-7.68747e-06
-3.61219e-07
-7.06423e-06
-2.09773e-06
-5.91968e-06
-4.08111e-06
-4.28195e-06
-5.8226e-06
-2.37186e-06
-6.50831e-06
-7.09302e-07
-5.20512e-06
-1.75252e-06
-3.53379e-07
9.47948e-07
-1.0717e-06
2.3601e-06
-1.92741e-06
3.01886e-06
-2.80102e-06
3.21437e-06
-3.64301e-06
3.20462e-06
-4.44127e-06
3.14633e-06
-5.1993e-06
3.10899e-06
-5.92244e-06
3.10218e-06
-6.60829e-06
3.09174e-06
-7.23938e-06
3.00453e-06
-7.77817e-06
2.73135e-06
-8.1653e-06
2.13672e-06
-8.32168e-06
1.08254e-06
-8.1538e-06
-5.29104e-07
-7.56255e-06
-2.68898e-06
-6.46116e-06
-5.1825e-06
-4.82323e-06
-7.46053e-06
-2.79829e-06
-8.53326e-06
-8.98883e-07
-7.10452e-06
-2.6514e-06
-4.33658e-07
1.38161e-06
-1.26879e-06
3.19523e-06
-2.22491e-06
3.97498e-06
-3.16796e-06
4.15741e-06
-4.0479e-06
4.08456e-06
-4.85536e-06
3.9538e-06
-5.59675e-06
3.85038e-06
-6.2804e-06
3.78583e-06
-6.908e-06
3.71934e-06
-7.46875e-06
3.56528e-06
-7.9361e-06
3.19871e-06
-8.26704e-06
2.46765e-06
-8.40272e-06
1.21822e-06
-8.26828e-06
-6.63543e-07
-7.77056e-06
-3.18671e-06
-6.80011e-06
-6.15295e-06
-5.26507e-06
-8.99556e-06
-3.21572e-06
-1.05826e-05
-1.11395e-06
-9.20629e-06
-3.76535e-06
-5.13269e-07
1.89488e-06
-1.45344e-06
4.13541e-06
-2.48508e-06
5.00662e-06
-3.46227e-06
5.1346e-06
-4.33809e-06
4.96038e-06
-5.10901e-06
4.72471e-06
-5.78676e-06
4.52813e-06
-6.38491e-06
4.38398e-06
-6.91165e-06
4.24608e-06
-7.3658e-06
4.01944e-06
-7.73526e-06
3.56816e-06
-7.99676e-06
2.72916e-06
-8.11491e-06
1.33637e-06
-8.03658e-06
-7.41869e-07
-7.67839e-06
-3.5449e-06
-6.91251e-06
-6.91883e-06
-5.58073e-06
-1.03273e-05
-3.61222e-06
-1.25511e-05
-1.36156e-06
-1.1457e-05
-5.12691e-06
-5.94802e-07
2.48968e-06
-1.62608e-06
5.16669e-06
-2.70347e-06
6.08401e-06
-3.67484e-06
6.10597e-06
-4.50181e-06
5.78736e-06
-5.19057e-06
5.41346e-06
-5.7608e-06
5.09836e-06
-6.23311e-06
4.8563e-06
-6.62367e-06
4.63664e-06
-6.94229e-06
4.33806e-06
-7.19243e-06
3.81829e-06
-7.37148e-06
2.90821e-06
-7.46848e-06
1.43337e-06
-7.45457e-06
-7.55784e-07
-7.26242e-06
-3.73704e-06
-6.75675e-06
-7.42451e-06
-5.72263e-06
-1.13615e-05
-3.95583e-06
-1.43179e-05
-1.63928e-06
-1.37735e-05
-6.76619e-06
-6.82879e-07
3.17256e-06
-1.78887e-06
6.27268e-06
-2.8759e-06
7.17104e-06
-3.79569e-06
7.02576e-06
-4.52606e-06
6.51773e-06
-5.08757e-06
5.97497e-06
-5.51029e-06
5.52107e-06
-5.82284e-06
5.16885e-06
-6.04955e-06
4.86335e-06
-6.21077e-06
4.49927e-06
-6.32454e-06
3.93207e-06
-6.40762e-06
2.99129e-06
-6.47265e-06
1.4984e-06
-6.51687e-06
-7.11559e-07
-6.49683e-06
-3.75709e-06
-6.28559e-06
-7.63574e-06
-5.63129e-06
-1.20158e-05
-4.1972e-06
-1.5752e-05
-1.93294e-06
-1.60378e-05
-8.69913e-06
-7.84668e-07
3.95722e-06
-1.94491e-06
7.43292e-06
-2.99633e-06
8.22246e-06
-3.81083e-06
7.84026e-06
-4.39288e-06
7.09978e-06
-4.78257e-06
6.36467e-06
-5.0221e-06
5.7606e-06
-5.14792e-06
5.29467e-06
-5.19114e-06
4.90657e-06
-5.18055e-06
4.48868e-06
-5.14605e-06
3.89757e-06
-5.12067e-06
2.96591e-06
-5.13832e-06
1.51605e-06
-5.22299e-06
-6.26885e-07
-5.3625e-06
-3.61758e-06
-5.45655e-06
-7.54169e-06
-5.2445e-06
-1.22278e-05
-4.27434e-06
-1.67222e-05
-2.21506e-06
-1.8097e-05
-1.09142e-05
-9.10383e-07
4.86761e-06
-2.09634e-06
8.61888e-06
-3.05261e-06
9.17873e-06
-3.69684e-06
8.48449e-06
-4.07351e-06
7.47645e-06
-4.24717e-06
6.53833e-06
-4.27253e-06
5.78596e-06
-4.19208e-06
5.21422e-06
-4.04083e-06
4.75533e-06
-3.85245e-06
4.3003e-06
-3.66464e-06
3.70976e-06
-3.52243e-06
2.8237e-06
-3.47734e-06
1.47096e-06
-3.57884e-06
-5.25381e-07
-3.85117e-06
-3.34525e-06
-4.23812e-06
-7.15474e-06
-4.50438e-06
-1.19616e-05
-4.11778e-06
-1.71088e-05
-2.44407e-06
-1.97708e-05
-1.33583e-05
-1.07324e-06
5.94085e-06
-2.23983e-06
9.78547e-06
-3.01864e-06
9.95753e-06
-3.41196e-06
8.87781e-06
-3.51962e-06
7.58412e-06
-3.43383e-06
6.45253e-06
-3.21975e-06
5.57188e-06
-2.92198e-06
4.91645e-06
-2.57499e-06
4.40835e-06
-2.21265e-06
3.93796e-06
-1.87562e-06
3.37273e-06
-1.61598e-06
2.56406e-06
-1.49809e-06
1.35307e-06
-1.59354e-06
-4.29929e-07
-1.96416e-06
-2.97463e-06
-2.61114e-06
-6.50776e-06
-3.36081e-06
-1.12119e-05
-3.65441e-06
-1.68152e-05
-2.5642e-06
-2.0861e-05
-1.59225e-05
-1.28732e-06
7.22816e-06
-2.35607e-06
1.08542e-05
-2.83952e-06
1.0441e-05
-2.88124e-06
8.91954e-06
-2.65055e-06
7.35342e-06
-2.26542e-06
6.0674e-06
-1.79524e-06
5.1017e-06
-1.28003e-06
4.40125e-06
-7.47736e-07
3.87605e-06
-2.27029e-07
3.41725e-06
2.43593e-07
2.90211e-06
6.10213e-07
2.19744e-06
8.00837e-07
1.16244e-06
7.27074e-07
-3.56166e-07
2.93013e-07
-2.54057e-06
-5.65674e-07
-5.64908e-06
-1.77056e-06
-1.0007e-05
-2.80744e-06
-1.57783e-05
-2.50229e-06
-2.11661e-05
-1.84248e-05
-1.55829e-06
8.78645e-06
-2.38547e-06
1.16814e-05
-2.40381e-06
1.04593e-05
-1.97315e-06
8.48888e-06
-1.33596e-06
6.71623e-06
-6.23312e-07
5.35475e-06
1.04071e-07
4.37431e-06
8.20725e-07
3.68459e-06
1.51254e-06
3.18423e-06
2.16162e-06
2.76818e-06
2.73646e-06
2.32726e-06
3.18594e-06
1.74796e-06
3.43582e-06
9.12564e-07
3.38743e-06
-3.07776e-07
2.9187e-06
-2.07185e-06
1.90529e-06
-4.63566e-06
3.08841e-07
-8.41054e-06
-1.48984e-06
-1.39796e-05
-2.16558e-06
-2.04904e-05
-2.05903e-05
-1.84839e-06
1.06348e-05
-2.17264e-06
1.20056e-05
-1.49399e-06
9.78067e-06
-4.65336e-07
7.46023e-06
6.2421e-07
5.62668e-06
1.66258e-06
4.31638e-06
2.61923e-06
3.41767e-06
3.49611e-06
2.80771e-06
4.30045e-06
2.37989e-06
5.02983e-06
2.0388e-06
5.66345e-06
1.69364e-06
6.15676e-06
1.25464e-06
6.43798e-06
6.31344e-07
6.40505e-06
-2.74843e-07
5.92066e-06
-1.58745e-06
4.81306e-06
-3.52806e-06
2.9186e-06
-6.51609e-06
4.02777e-07
-1.14638e-05
-1.41668e-06
-1.86709e-05
-2.2007e-05
-1.97444e-06
1.26093e-05
-1.34715e-06
1.13784e-05
2.93077e-07
8.14044e-06
1.99577e-06
5.75754e-06
3.51388e-06
4.10856e-06
4.81305e-06
3.01721e-06
5.92067e-06
2.31005e-06
6.87837e-06
1.85001e-06
7.71965e-06
1.5386e-06
8.45956e-06
1.29889e-06
9.08932e-06
1.06388e-06
9.57308e-06
7.7089e-07
9.84543e-06
3.58993e-07
9.80787e-06
-2.37285e-07
9.32054e-06
-1.10012e-06
8.18431e-06
-2.39183e-06
6.12972e-06
-4.46151e-06
3.03604e-06
-8.37009e-06
4.47361e-08
-1.56796e-05
-2.19623e-05
-1.30945e-06
1.39187e-05
9.03847e-07
9.16506e-06
3.64797e-06
5.39632e-06
5.91438e-06
3.49113e-06
7.68483e-06
2.33811e-06
9.06995e-06
1.6321e-06
1.01749e-05
1.20508e-06
1.10835e-05
9.41476e-07
1.18522e-05
7.69811e-07
1.251e-05
6.4112e-07
1.30577e-05
5.16243e-07
1.3468e-05
3.60542e-07
1.36853e-05
1.41679e-07
1.36223e-05
-1.74293e-07
1.31515e-05
-6.29326e-07
1.20734e-05
-1.31373e-06
1.0057e-05
-2.44507e-06
6.62397e-06
-4.93708e-06
2.1905e-06
-1.12461e-05
-1.97718e-05
1.84336e-06
1.20754e-05
6.22253e-06
4.78589e-06
9.56334e-06
2.0555e-06
1.18594e-05
1.19506e-06
1.34571e-05
7.40398e-07
1.46058e-05
4.83383e-07
1.54687e-05
3.42219e-07
1.61487e-05
2.61497e-07
1.67072e-05
2.11349e-07
1.71742e-05
1.74071e-07
1.75538e-05
1.36635e-07
1.78262e-05
8.81091e-08
1.79491e-05
1.87842e-08
1.78563e-05
-8.14375e-08
1.74513e-05
-2.24325e-07
1.65745e-05
-4.36968e-07
1.4921e-05
-7.91555e-07
1.17265e-05
-1.74258e-06
5.92201e-06
-5.44164e-06
-1.38498e-05
1.20754e-05
1.68613e-05
1.89168e-05
2.01118e-05
2.08522e-05
2.13356e-05
2.16778e-05
2.19393e-05
2.21507e-05
2.23248e-05
2.24614e-05
2.25495e-05
2.25683e-05
2.24868e-05
2.22625e-05
2.18255e-05
2.1034e-05
1.92914e-05
1.38498e-05
)
;

boundaryField
{
    movingWall
    {
        type            calculated;
        value           uniform 0;
    }
    fixedWalls
    {
        type            calculated;
        value           uniform 0;
    }
    frontAndBack
    {
        type            empty;
        value           nonuniform 0();
    }
}


// ************************************************************************* //
