/*--------------------------------*- C++ -*----------------------------------*\
  =========                 |
  \\      /  F ield         | OpenFOAM: The Open Source CFD Toolbox
   \\    /   O peration     | Website:  https://openfoam.org
    \\  /    A nd           | Version:  7
     \\/     M anipulation  |
\*---------------------------------------------------------------------------*/
FoamFile
{
    version     2.0;
    format      ascii;
    class       volVectorField;
    location    "0.4";
    object      U;
}
// * * * * * * * * * * * * * * * * * * * * * * * * * * * * * * * * * * * * * //

dimensions      [0 1 -1 0 0 0 0];

internalField   nonuniform List<vector> 
400
(
(0.0006004 -0.000218525 0)
(-0.000406007 0.000430093 0)
(-0.00418126 0.000705769 0)
(-0.00869352 0.000782626 0)
(-0.0134023 0.0007953 0)
(-0.0181618 0.000812344 0)
(-0.0230523 0.000859228 0)
(-0.0282262 0.000939825 0)
(-0.0338181 0.00104767 0)
(-0.0398792 0.00116327 0)
(-0.0462838 0.00124548 0)
(-0.0525992 0.00122186 0)
(-0.0579393 0.000985439 0)
(-0.060874 0.000413827 0)
(-0.0595421 -0.000565521 0)
(-0.0522104 -0.00185393 0)
(-0.0384644 -0.00303385 0)
(-0.020612 -0.00339337 0)
(-0.00405008 -0.0022423 0)
(0.00152288 0.000383272 0)
(0.000242947 -0.000116256 0)
(-0.00400188 0.00271913 0)
(-0.014388 0.00413537 0)
(-0.0267035 0.00462933 0)
(-0.0396465 0.00475798 0)
(-0.0527623 0.00485287 0)
(-0.0661337 0.00505381 0)
(-0.0800354 0.00538458 0)
(-0.0946874 0.00579685 0)
(-0.110061 0.00616325 0)
(-0.125648 0.00624978 0)
(-0.140185 0.00569399 0)
(-0.15142 0.00402603 0)
(-0.156074 0.000790725 0)
(-0.150296 -0.00415014 0)
(-0.130928 -0.0101714 0)
(-0.0977727 -0.0153834 0)
(-0.0559851 -0.0168059 0)
(-0.0167656 -0.0117336 0)
(0.000211444 -0.000793533 0)
(-0.000777581 0.00126997 0)
(-0.00893637 0.00785361 0)
(-0.025591 0.0113673 0)
(-0.0448445 0.0126933 0)
(-0.0649311 0.0130625 0)
(-0.085151 0.0132707 0)
(-0.105531 0.0136742 0)
(-0.126365 0.014333 0)
(-0.147849 0.0151022 0)
(-0.169796 0.0156253 0)
(-0.191316 0.0152933 0)
(-0.210505 0.0132348 0)
(-0.224239 0.00841993 0)
(-0.228277 -1.75e-05 0)
(-0.217953 -0.0121342 0)
(-0.189705 -0.0262756 0)
(-0.143571 -0.0382032 0)
(-0.0857805 -0.0414435 0)
(-0.0299691 -0.0301427 0)
(-0.00236487 -0.00588318 0)
(-0.00203358 0.00421997 0)
(-0.014402 0.01575 0)
(-0.0371222 0.0218956 0)
(-0.0625712 0.0242201 0)
(-0.0887033 0.02481 0)
(-0.114658 0.0250404 0)
(-0.140404 0.025539 0)
(-0.166215 0.026406 0)
(-0.192231 0.027357 0)
(-0.218114 0.0277286 0)
(-0.242717 0.0264419 0)
(-0.26379 0.0220354 0)
(-0.277861 0.0128897 0)
(-0.280441 -0.00222433 0)
(-0.266755 -0.0231807 0)
(-0.233163 -0.0471558 0)
(-0.179425 -0.0673927 0)
(-0.111238 -0.0734806 0)
(-0.0425169 -0.0554095 0)
(-0.00512329 -0.0147399 0)
(-0.00335931 0.00882241 0)
(-0.0200037 0.0263117 0)
(-0.048509 0.0353059 0)
(-0.0793674 0.0385454 0)
(-0.110363 0.0391562 0)
(-0.140556 0.0391648 0)
(-0.169889 0.039495 0)
(-0.198626 0.0402837 0)
(-0.226873 0.041085 0)
(-0.254233 0.0408992 0)
(-0.279492 0.0381639 0)
(-0.300392 0.0308512 0)
(-0.313586 0.0168165 0)
(-0.314864 -0.00546736 0)
(-0.299735 -0.0357057 0)
(-0.264461 -0.0701173 0)
(-0.207877 -0.0997455 0)
(-0.1338 -0.110221 0)
(-0.0548307 -0.0862176 0)
(-0.00803072 -0.0271395 0)
(-0.00469968 0.0150788 0)
(-0.0255447 0.0394595 0)
(-0.0594103 0.0513026 0)
(-0.0947713 0.0551532 0)
(-0.129328 0.0554036 0)
(-0.162142 0.0547966 0)
(-0.193194 0.0545647 0)
(-0.222785 0.0548802 0)
(-0.25106 0.0551333 0)
(-0.277687 0.0540007 0)
(-0.3016 0.0494789 0)
(-0.320847 0.0390519 0)
(-0.332582 0.0201381 0)
(-0.333233 -0.00906562 0)
(-0.31879 -0.0482516 0)
(-0.285326 -0.0931102 0)
(-0.230234 -0.13308 0)
(-0.154399 -0.150035 0)
(-0.0676928 -0.122004 0)
(-0.0114063 -0.0431568 0)
(-0.00605618 0.0229578 0)
(-0.0309454 0.0550479 0)
(-0.0695886 0.0695301 0)
(-0.108389 0.073476 0)
(-0.145066 0.0728126 0)
(-0.17879 0.0710651 0)
(-0.209661 0.0697813 0)
(-0.238094 0.0691713 0)
(-0.264366 0.0684777 0)
(-0.288342 0.0660966 0)
(-0.309296 0.0596615 0)
(-0.325818 0.0462713 0)
(-0.335823 0.0229904 0)
(-0.336593 -0.0122838 0)
(-0.324731 -0.0594765 0)
(-0.29612 -0.114303 0)
(-0.246483 -0.165382 0)
(-0.173075 -0.191309 0)
(-0.0816629 -0.162253 0)
(-0.0156427 -0.0631834 0)
(-0.00747392 0.0324306 0)
(-0.0362195 0.0728652 0)
(-0.078898 0.0895366 0)
(-0.119894 0.0928531 0)
(-0.157108 0.0905711 0)
(-0.189956 0.0870606 0)
(-0.218769 0.0841838 0)
(-0.244164 0.0821904 0)
(-0.266633 0.0802017 0)
(-0.286351 0.0763938 0)
(-0.303056 0.0681324 0)
(-0.316024 0.0522403 0)
(-0.324068 0.0255018 0)
(-0.325446 -0.0145282 0)
(-0.317507 -0.0682728 0)
(-0.296117 -0.132063 0)
(-0.255465 -0.194616 0)
(-0.188873 -0.232116 0)
(-0.0967813 -0.206151 0)
(-0.0210823 -0.0878307 0)
(-0.00904469 0.0435031 0)
(-0.0414703 0.0926533 0)
(-0.0872667 0.110778 0)
(-0.129001 0.112535 0)
(-0.165008 0.107811 0)
(-0.195143 0.101866 0)
(-0.220087 0.096859 0)
(-0.240744 0.0930698 0)
(-0.257886 0.0895245 0)
(-0.272046 0.0842432 0)
(-0.283483 0.0744205 0)
(-0.2922 0.0567083 0)
(-0.297938 0.0276823 0)
(-0.299983 -0.0154718 0)
(-0.296589 -0.0738919 0)
(-0.283958 -0.145063 0)
(-0.255234 -0.218796 0)
(-0.199965 -0.270173 0)
(-0.112405 -0.252374 0)
(-0.0279211 -0.117769 0)
(-0.0109202 0.0562531 0)
(-0.0468953 0.114112 0)
(-0.0946653 0.132605 0)
(-0.135404 0.13167 0)
(-0.168274 0.12361 0)
(-0.193804 0.114575 0)
(-0.213164 0.106966 0)
(-0.227601 0.101065 0)
(-0.238186 0.0958148 0)
(-0.245806 0.0891364 0)
(-0.251207 0.0781406 0)
(-0.255074 0.0594075 0)
(-0.258016 0.0293829 0)
(-0.260348 -0.0150978 0)
(-0.261389 -0.076001 0)
(-0.258153 -0.152376 0)
(-0.243524 -0.236104 0)
(-0.203909 -0.302912 0)
(-0.127154 -0.29892 0)
(-0.0360951 -0.153517 0)
(-0.0133331 0.0708761 0)
(-0.0527907 0.136884 0)
(-0.101044 0.15422 0)
(-0.138671 0.149278 0)
(-0.16622 0.136982 0)
(-0.18519 0.124293 0)
(-0.197357 0.113747 0)
(-0.204331 0.105565 0)
(-0.207446 0.0985969 0)
(-0.207867 0.0907059 0)
(-0.206736 0.0789948 0)
(-0.205291 0.0600631 0)
(-0.204894 0.0303205 0)
(-0.206817 -0.0136678 0)
(-0.211577 -0.0746756 0)
(-0.217485 -0.153534 0)
(-0.218154 -0.24504 0)
(-0.197965 -0.327639 0)
(-0.138954 -0.343054 0)
(-0.0451282 -0.195194 0)
(-0.0166198 0.0877445 0)
(-0.0595386 0.160502 0)
(-0.1062 0.174605 0)
(-0.138035 0.16419 0)
(-0.157744 0.146844 0)
(-0.168109 0.130133 0)
(-0.171591 0.116534 0)
(-0.170118 0.1061 0)
(-0.165184 0.0975592 0)
(-0.158106 0.0887397 0)
(-0.150262 0.0767997 0)
(-0.143277 0.0584448 0)
(-0.139092 0.0301566 0)
(-0.139816 -0.0116304 0)
(-0.147193 -0.0703367 0)
(-0.161225 -0.148551 0)
(-0.177322 -0.244574 0)
(-0.179365 -0.341767 0)
(-0.145182 -0.381377 0)
(-0.0539445 -0.242245 0)
(-0.0212306 0.107478 0)
(-0.067536 0.184278 0)
(-0.10951 0.192387 0)
(-0.132046 0.174972 0)
(-0.140961 0.151996 0)
(-0.140586 0.131212 0)
(-0.134043 0.114756 0)
(-0.12344 0.102357 0)
(-0.110256 0.0925702 0)
(-0.0957752 0.083205 0)
(-0.0814246 0.0715298 0)
(-0.0690165 0.0544394 0)
(-0.0608715 0.0286041 0)
(-0.0597547 -0.00949253 0)
(-0.0685531 -0.0636395 0)
(-0.0891412 -0.137903 0)
(-0.119706 -0.234267 0)
(-0.14546 -0.343053 0)
(-0.142818 -0.410004 0)
(-0.060673 -0.293152 0)
(-0.0276793 0.131006 0)
(-0.0769608 0.207078 0)
(-0.109371 0.205637 0)
(-0.117948 0.17983 0)
(-0.112648 0.151095 0)
(-0.0994003 0.126679 0)
(-0.08177 0.107973 0)
(-0.0617633 0.0942069 0)
(-0.0405903 0.0837072 0)
(-0.0192777 0.0742828 0)
(0.000907038 0.0633676 0)
(0.0181671 0.0481261 0)
(0.0300086 0.0255359 0)
(0.0332314 -0.0076778 0)
(0.0240073 -0.0553263 0)
(-0.00131625 -0.122442 0)
(-0.0444051 -0.214351 0)
(-0.0937092 -0.329829 0)
(-0.128533 -0.424824 0)
(-0.0624532 -0.345136 0)
(-0.0362853 0.159526 0)
(-0.0870767 0.226891 0)
(-0.102051 0.21159 0)
(-0.0906133 0.176548 0)
(-0.067429 0.142726 0)
(-0.0395161 0.115806 0)
(-0.0103235 0.0959695 0)
(0.0187085 0.0817789 0)
(0.0469757 0.071312 0)
(0.0739558 0.0624148 0)
(0.0987401 0.052752 0)
(0.119734 0.03984 0)
(0.134463 0.0210735 0)
(0.139525 -0.00640303 0)
(0.130432 -0.0460715 0)
(0.102137 -0.103267 0)
(0.0492646 -0.185749 0)
(-0.0214936 -0.301242 0)
(-0.0985142 -0.421902 0)
(-0.0551468 -0.393844 0)
(-0.0462541 0.19406 0)
(-0.0942588 0.239918 0)
(-0.0794019 0.206199 0)
(-0.040857 0.162529 0)
(0.0032693 0.125606 0)
(0.0464798 0.0982129 0)
(0.0864875 0.0789298 0)
(0.123071 0.0655891 0)
(0.156615 0.0560766 0)
(0.187325 0.0483603 0)
(0.214806 0.0404205 0)
(0.237805 0.0302095 0)
(0.254026 0.015633 0)
(0.260087 -0.00560278 0)
(0.25116 -0.0363551 0)
(0.221395 -0.0815561 0)
(0.162064 -0.149983 0)
(0.0741834 -0.257443 0)
(-0.0478602 -0.397974 0)
(-0.0326778 -0.432743 0)
(-0.0526897 0.23421 0)
(-0.0866988 0.238726 0)
(-0.0247528 0.183588 0)
(0.0468399 0.135124 0)
(0.112174 0.0990967 0)
(0.168558 0.0742891 0)
(0.216359 0.0577336 0)
(0.257273 0.0467255 0)
(0.292968 0.0391502 0)
(0.324488 0.0332487 0)
(0.352003 0.0274251 0)
(0.374661 0.0201478 0)
(0.390449 0.00990265 0)
(0.396214 -0.00495026 0)
(0.387117 -0.0264533 0)
(0.35721 -0.0585106 0)
(0.295269 -0.10918 0)
(0.197095 -0.199643 0)
(0.0309204 -0.349989 0)
(0.014599 -0.451619 0)
(-0.0366982 0.274541 0)
(-0.0318788 0.211414 0)
(0.0929253 0.138061 0)
(0.196178 0.0936117 0)
(0.275982 0.0646086 0)
(0.338203 0.0461127 0)
(0.387175 0.0345294 0)
(0.426769 0.0271953 0)
(0.459867 0.0223429 0)
(0.48819 0.0186892 0)
(0.512334 0.0151715 0)
(0.531793 0.010829 0)
(0.544897 0.00474914 0)
(0.548924 -0.00403272 0)
(0.539421 -0.0167059 0)
(0.511087 -0.0357422 0)
(0.451479 -0.0668364 0)
(0.352913 -0.131146 0)
(0.151069 -0.273111 0)
(0.103488 -0.433719 0)
(0.0704662 0.284225 0)
(0.146443 0.149911 0)
(0.322416 0.0758483 0)
(0.436447 0.0457192 0)
(0.511368 0.0290986 0)
(0.564535 0.0194323 0)
(0.603679 0.0138899 0)
(0.633786 0.0106256 0)
(0.658089 0.00857446 0)
(0.678377 0.00706753 0)
(0.695298 0.00560256 0)
(0.708537 0.00375332 0)
(0.716822 0.0011312 0)
(0.7181 -0.00264808 0)
(0.708887 -0.00807833 0)
(0.685329 -0.0162308 0)
(0.635965 -0.0297373 0)
(0.552992 -0.0625461 0)
(0.340891 -0.166488 0)
(0.266776 -0.344007 0)
(0.489788 0.141226 0)
(0.585741 0.0606494 0)
(0.71869 0.0234798 0)
(0.786417 0.0115495 0)
(0.822438 0.00636863 0)
(0.845435 0.00378021 0)
(0.861287 0.00249367 0)
(0.872971 0.00182844 0)
(0.882201 0.00144773 0)
(0.889806 0.00117311 0)
(0.896011 0.000886288 0)
(0.900586 0.000494545 0)
(0.90287 -8.37867e-05 0)
(0.901886 -0.000916583 0)
(0.896004 -0.00210922 0)
(0.883608 -0.00388644 0)
(0.858422 -0.00681203 0)
(0.816665 -0.0146614 0)
(0.674012 -0.0502883 0)
(0.591258 -0.135122 0)
)
;

boundaryField
{
    movingWall
    {
        type            fixedValue;
        value           uniform (1 0 0);
    }
    fixedWalls
    {
        type            noSlip;
    }
    frontAndBack
    {
        type            empty;
    }
}


// ************************************************************************* //
