/*--------------------------------*- C++ -*----------------------------------*\
  =========                 |
  \\      /  F ield         | OpenFOAM: The Open Source CFD Toolbox
   \\    /   O peration     | Website:  https://openfoam.org
    \\  /    A nd           | Version:  7
     \\/     M anipulation  |
\*---------------------------------------------------------------------------*/
FoamFile
{
    version     2.0;
    format      ascii;
    class       volScalarField;
    location    "0.3";
    object      p;
}
// * * * * * * * * * * * * * * * * * * * * * * * * * * * * * * * * * * * * * //

dimensions      [0 2 -2 0 0 0 0];

internalField   nonuniform List<scalar> 
400
(
-4.1619e-09
-0.000457442
-0.000899563
-0.00116145
-0.00115632
-0.000852648
-0.0002483
0.000643732
0.00179669
0.00316379
0.00467035
0.00620864
0.00764267
0.00882296
0.0096152
0.00993693
0.00979359
0.00930021
0.00866671
0.00820366
0.000441213
-3.0432e-05
-0.000364637
-0.000510019
-0.000442799
-0.000141421
0.000399454
0.00117282
0.00215943
0.00332217
0.00459961
0.00590492
0.00712425
0.00813502
0.0088278
0.00913676
0.00906838
0.00871323
0.00821768
0.00775052
0.000896985
0.000263344
-9.10338e-05
-0.000207735
-0.000126461
0.00015854
0.000650268
0.00134558
0.0022336
0.00328828
0.00446031
0.00567283
0.00682104
0.00778555
0.00845436
0.008754
0.00868067
0.00831016
0.00774459
0.00708321
0.00117981
0.000333064
-0.00010144
-0.000238839
-0.000174802
8.12074e-05
0.00052921
0.00117026
0.00200328
0.00301441
0.00416554
0.00538842
0.00657531
0.00759507
0.00831357
0.00863024
0.00851919
0.00804567
0.00729167
0.00633922
0.00113962
8.12975e-05
-0.000447646
-0.000625151
-0.000595335
-0.000379677
2.10707e-05
0.000614354
0.00141137
0.00241324
0.00359497
0.00490069
0.00621394
0.00738364
0.0082384
0.00863094
0.00849654
0.00788504
0.00687078
0.00554632
0.000655025
-0.000603493
-0.00123047
-0.00146015
-0.00147948
-0.00131905
-0.000977895
-0.000439457
0.000323266
0.00133246
0.00258671
0.00403059
0.00555965
0.00699451
0.00810986
0.00868556
0.00858919
0.00783692
0.00649398
0.00468397
-0.000377043
-0.00182456
-0.00255105
-0.00284439
-0.00293163
-0.0028511
-0.00259854
-0.00214583
-0.00144579
-0.000448771
0.000874689
0.0025017
0.00433529
0.00617573
0.00773116
0.00867329
0.00875343
0.00791065
0.00617463
0.00371139
-0.00205071
-0.00367767
-0.00450561
-0.00487659
-0.00505825
-0.00509769
-0.00498771
-0.00468749
-0.00412554
-0.00321494
-0.00187732
-8.0235e-05
0.0021188
0.0045203
0.00676218
0.00836611
0.00889076
0.00811173
0.00594904
0.00260379
-0.0044536
-0.00625243
-0.00718445
-0.00764942
-0.00795988
-0.00817608
-0.00829134
-0.00825402
-0.00796636
-0.00729457
-0.00608885
-0.00422422
-0.00166859
0.00143036
0.00466353
0.00736749
0.00880359
0.0084325
0.00590339
0.00139667
-0.00766486
-0.00963067
-0.0106661
-0.0112367
-0.0117099
-0.0121682
-0.0126129
-0.012988
-0.0131724
-0.0129796
-0.0121662
-0.0104675
-0.00769411
-0.00384777
0.000687993
0.00506814
0.00814455
0.00883298
0.00620747
0.000256618
-0.0117541
-0.0138863
-0.0150105
-0.0156755
-0.0163238
-0.0170747
-0.0179501
-0.0189006
-0.019791
-0.0203839
-0.020329
-0.0191841
-0.0164996
-0.0120265
-0.00597722
0.00071159
0.00642238
0.00924046
0.00716793
-0.000387581
-0.0167883
-0.019092
-0.0202541
-0.0209451
-0.0217218
-0.0227618
-0.0241218
-0.0257731
-0.02758
-0.0292647
-0.0303688
-0.030242
-0.0281206
-0.0233633
-0.0158172
-0.00630167
0.0031816
0.00963987
0.00933043
0.000395968
-0.0228622
-0.0253423
-0.0264104
-0.0269473
-0.0276946
-0.0289149
-0.0307116
-0.0330868
-0.0359155
-0.0388929
-0.0414638
-0.0427699
-0.0416896
-0.0371424
-0.0283872
-0.0158226
-0.00153452
0.0103644
0.0137017
0.00445169
-0.0301782
-0.032803
-0.033478
-0.0334881
-0.0338796
-0.0350227
-0.0370651
-0.0400361
-0.0438194
-0.0480854
-0.0521931
-0.0550923
-0.0552986
-0.0513884
-0.0418176
-0.0262974
-0.00652287
0.0126124
0.0221686
0.0151031
-0.0392437
-0.0418051
-0.0414431
-0.0402565
-0.0397568
-0.0404074
-0.0423667
-0.0456603
-0.0501538
-0.0554708
-0.0608801
-0.0651857
-0.0667228
-0.0632263
-0.0529156
-0.0345613
-0.00896828
0.0189598
0.0379675
0.0375405
-0.0513195
-0.053
-0.0502471
-0.0467827
-0.04466
-0.0443026
-0.0457859
-0.0490636
-0.053922
-0.0598876
-0.0661089
-0.0711851
-0.0731779
-0.0696295
-0.0580598
-0.0364889
-0.00466077
0.0335304
0.065812
0.0785174
-0.0694997
-0.0676101
-0.0597677
-0.0524715
-0.047879
-0.0460119
-0.046689
-0.049675
-0.0545869
-0.0607802
-0.0672052
-0.0722621
-0.0737428
-0.0688729
-0.0546611
-0.028506
0.0108883
0.0615899
0.111969
0.14739
-0.102128
-0.0874744
-0.0696564
-0.0565792
-0.0486667
-0.0449462
-0.0447138
-0.0473504
-0.0521749
-0.0582994
-0.06445
-0.0687988
-0.0688719
-0.0615037
-0.0431895
-0.0103997
0.0395968
0.106757
0.184782
0.264902
-0.175083
-0.112207
-0.0743406
-0.0541938
-0.0434067
-0.0385864
-0.0382327
-0.0411697
-0.0463315
-0.0526036
-0.0585653
-0.0622634
-0.0610903
-0.0514087
-0.0293863
0.00997471
0.0723386
0.16363
0.291129
0.465546
-0.341939
-0.133696
-0.0552888
-0.0332836
-0.0249262
-0.0223365
-0.0242359
-0.0292299
-0.0360189
-0.0434541
-0.0501702
-0.0542879
-0.0533148
-0.0442062
-0.0220013
0.0190406
0.0882808
0.20408
0.401672
0.731039
)
;

boundaryField
{
    movingWall
    {
        type            zeroGradient;
    }
    fixedWalls
    {
        type            zeroGradient;
    }
    frontAndBack
    {
        type            empty;
    }
}


// ************************************************************************* //
