/*--------------------------------*- C++ -*----------------------------------*\
  =========                 |
  \\      /  F ield         | OpenFOAM: The Open Source CFD Toolbox
   \\    /   O peration     | Website:  https://openfoam.org
    \\  /    A nd           | Version:  7
     \\/     M anipulation  |
\*---------------------------------------------------------------------------*/
FoamFile
{
    version     2.0;
    format      ascii;
    class       surfaceScalarField;
    location    "0.3";
    object      phi;
}
// * * * * * * * * * * * * * * * * * * * * * * * * * * * * * * * * * * * * * //

dimensions      [0 3 -1 0 0 0 0];

internalField   nonuniform List<scalar> 
760
(
4.35281e-09
-4.3522e-09
-3.15894e-08
3.59421e-08
-1.0538e-07
7.37902e-08
-2.02476e-07
9.70959e-08
-3.09968e-07
1.07492e-07
-4.17735e-07
1.07767e-07
-5.17573e-07
9.98388e-08
-6.02153e-07
8.45802e-08
-6.64328e-07
6.21742e-08
-6.97133e-07
3.28057e-08
-6.94519e-07
-2.6145e-09
-6.52855e-07
-4.16638e-08
-5.72646e-07
-8.02081e-08
-4.6021e-07
-1.12436e-07
-3.28355e-07
-1.31855e-07
-1.95502e-07
-1.32854e-07
-8.2783e-08
-1.12719e-07
-9.29115e-09
-7.34922e-08
1.48627e-08
-2.41542e-08
1.48628e-08
-3.65793e-08
3.22267e-08
-1.60329e-07
1.59692e-07
-3.55583e-07
2.69045e-07
-5.96963e-07
3.38475e-07
-8.59107e-07
3.69636e-07
-1.11956e-06
3.68221e-07
-1.35865e-06
3.38926e-07
-1.55846e-06
2.84396e-07
-1.70221e-06
2.05915e-07
-1.77455e-06
1.05147e-07
-1.76342e-06
-1.37366e-08
-1.66234e-06
-1.42751e-07
-1.47421e-06
-2.68332e-07
-1.21376e-06
-3.72893e-07
-9.08537e-07
-4.37075e-07
-5.96866e-07
-4.44525e-07
-3.21746e-07
-3.87839e-07
-1.21297e-07
-2.73941e-07
-1.754e-08
-1.27911e-07
-2.67706e-09
-8.17439e-08
1.1397e-07
-2.92894e-07
3.70841e-07
-5.97905e-07
5.74056e-07
-9.60635e-07
7.01205e-07
-1.34732e-06
7.56318e-07
-1.72783e-06
7.48735e-07
-2.07523e-06
6.86323e-07
-2.36468e-06
5.73845e-07
-2.57292e-06
4.14157e-07
-2.67893e-06
2.11152e-07
-2.66604e-06
-2.66181e-08
-2.5253e-06
-2.83494e-07
-2.25982e-06
-5.33815e-07
-1.88839e-06
-7.44325e-07
-1.4472e-06
-8.78257e-07
-9.87729e-07
-9.03999e-07
-5.69267e-07
-8.063e-07
-2.46594e-07
-5.96614e-07
-5.52594e-08
-3.19246e-07
-5.79365e-08
-1.21253e-07
2.35224e-07
-4.13631e-07
6.63219e-07
-8.19896e-07
9.8032e-07
-1.29179e-06
1.1731e-06
-1.78819e-06
1.25273e-06
-2.27378e-06
1.23432e-06
-2.71715e-06
1.12969e-06
-3.08912e-06
9.45809e-07
-3.3618e-06
6.86845e-07
-3.50922e-06
3.58573e-07
-3.5097e-06
-2.6146e-08
-3.34922e-06
-4.43974e-07
-3.0276e-06
-8.55429e-07
-2.56329e-06
-1.20864e-06
-1.99719e-06
-1.44436e-06
-1.39205e-06
-1.50914e-06
-8.24898e-07
-1.37345e-06
-3.71969e-07
-1.04954e-06
-8.97538e-08
-6.01461e-07
-1.4769e-07
-1.5587e-07
3.91094e-07
-5.22832e-07
1.03018e-06
-1.02327e-06
1.48075e-06
-1.59685e-06
1.74668e-06
-2.19592e-06
1.8518e-06
-2.78156e-06
1.81996e-06
-3.3199e-06
1.66804e-06
-3.77918e-06
1.40509e-06
-4.12794e-06
1.03561e-06
-4.33496e-06
5.6559e-07
-4.37192e-06
1.08123e-08
-4.21601e-06
-5.99882e-07
-3.85908e-06
-1.21236e-06
-3.3139e-06
-1.75382e-06
-2.62213e-06
-2.13612e-06
-1.85724e-06
-2.27403e-06
-1.11832e-06
-2.11237e-06
-5.11927e-07
-1.65593e-06
-1.25089e-07
-9.883e-07
-2.72779e-07
-1.8717e-07
5.78264e-07
-6.23241e-07
1.46625e-06
-1.21219e-06
2.06971e-06
-1.88257e-06
2.41705e-06
-2.58122e-06
2.55045e-06
-3.26714e-06
2.50588e-06
-3.90575e-06
2.30665e-06
-4.46421e-06
1.96355e-06
-4.90832e-06
1.47971e-06
-5.20138e-06
8.58648e-07
-5.30504e-06
1.14473e-07
-5.18567e-06
-7.1925e-07
-4.82001e-06
-1.57802e-06
-4.20859e-06
-2.36523e-06
-3.38798e-06
-2.95674e-06
-2.44028e-06
-3.22173e-06
-1.49134e-06
-3.06131e-06
-6.90093e-07
-2.45718e-06
-1.69106e-07
-1.50929e-06
-4.41885e-07
-2.16209e-07
7.94472e-07
-7.16985e-07
1.96703e-06
-1.3895e-06
2.74222e-06
-2.1523e-06
3.17985e-06
-2.94805e-06
3.3462e-06
-3.73528e-06
3.29311e-06
-4.4805e-06
3.05187e-06
-5.15154e-06
2.63459e-06
-5.71255e-06
2.04072e-06
-6.12127e-06
1.26737e-06
-6.32907e-06
3.22271e-07
-6.28581e-06
-7.62513e-07
-5.9482e-06
-1.91562e-06
-5.29587e-06
-3.01756e-06
-4.35105e-06
-3.90156e-06
-3.198e-06
-4.37478e-06
-1.99091e-06
-4.26839e-06
-9.34977e-07
-3.51312e-06
-2.3124e-07
-2.21302e-06
-6.73125e-07
-2.43441e-07
1.03791e-06
-8.04819e-07
2.52841e-06
-1.55531e-06
3.49271e-06
-2.40433e-06
4.02888e-06
-3.29162e-06
4.23348e-06
-4.17697e-06
4.17846e-06
-5.03006e-06
3.90496e-06
-5.82151e-06
3.42605e-06
-6.51587e-06
2.73508e-06
-7.06684e-06
1.81834e-06
-7.41556e-06
6.70989e-07
-7.49388e-06
-6.84197e-07
-7.23332e-06
-2.17618e-06
-6.58357e-06
-3.66732e-06
-5.53947e-06
-4.94567e-06
-4.17371e-06
-5.74054e-06
-2.66236e-06
-5.77975e-06
-1.27817e-06
-4.8973e-06
-3.22604e-07
-3.16859e-06
-9.95729e-07
-2.68932e-07
1.30684e-06
-8.86405e-07
3.14588e-06
-1.70723e-06
4.31353e-06
-2.63181e-06
4.95346e-06
-3.59796e-06
5.19964e-06
-4.56846e-06
5.14896e-06
-5.51833e-06
4.85483e-06
-6.4237e-06
4.33141e-06
-7.25264e-06
3.56402e-06
-7.95828e-06
2.52398e-06
-8.47476e-06
1.18747e-06
-8.71787e-06
-4.41083e-07
-8.5927e-06
-2.30135e-06
-8.01168e-06
-4.24833e-06
-6.92688e-06
-6.03046e-06
-5.37687e-06
-7.29055e-06
-3.5386e-06
-7.61802e-06
-1.75214e-06
-6.68377e-06
-4.56746e-07
-4.46398e-06
-1.45248e-06
-2.92982e-07
1.59983e-06
-9.61651e-07
3.81455e-06
-1.84208e-06
5.19396e-06
-2.82467e-06
5.93604e-06
-3.84588e-06
6.22085e-06
-4.873e-06
6.17608e-06
-5.88864e-06
5.87048e-06
-6.87748e-06
5.32026e-06
-7.81539e-06
4.50194e-06
-8.66068e-06
3.36926e-06
-9.34758e-06
1.87437e-06
-9.78298e-06
-5.68817e-09
-9.85094e-06
-2.23339e-06
-9.42509e-06
-4.67418e-06
-8.40123e-06
-7.05432e-06
-6.75427e-06
-8.93752e-06
-4.62178e-06
-9.7505e-06
-2.38501e-06
-8.92054e-06
-6.50747e-07
-6.19825e-06
-2.10322e-06
-3.17266e-07
1.91709e-06
-1.03324e-06
4.53052e-06
-1.95936e-06
6.12008e-06
-2.97359e-06
6.95027e-06
-4.01144e-06
7.2587e-06
-5.0463e-06
7.21093e-06
-6.07053e-06
6.89471e-06
-7.08051e-06
6.33024e-06
-8.06486e-06
5.48629e-06
-8.99463e-06
4.29904e-06
-9.81475e-06
2.69449e-06
-1.04372e-05
6.16717e-07
-1.07372e-05
-1.93331e-06
-1.05594e-05
-4.85199e-06
-9.73838e-06
-7.87536e-06
-8.15658e-06
-1.05193e-05
-5.85445e-06
-1.20526e-05
-3.18815e-06
-1.15868e-05
-9.25659e-07
-8.46073e-06
-3.02888e-06
-3.46798e-07
2.26389e-06
-1.11056e-06
5.29429e-06
-2.06616e-06
7.07568e-06
-3.07561e-06
7.95972e-06
-4.07477e-06
8.25786e-06
-5.0455e-06
8.18166e-06
-5.99232e-06
7.84153e-06
-6.92632e-06
7.26423e-06
-7.85367e-06
6.41364e-06
-8.76627e-06
5.21164e-06
-9.63234e-06
3.56056e-06
-1.03858e-05
1.37021e-06
-1.09154e-05
-1.40375e-06
-1.10579e-05
-4.70945e-06
-1.05988e-05
-8.33446e-06
-9.31361e-06
-1.18045e-05
-7.08411e-06
-1.42821e-05
-4.13185e-06
-1.45391e-05
-1.30385e-06
-1.12887e-05
-4.33273e-06
-3.93248e-07
2.65714e-06
-1.21535e-06
6.11638e-06
-2.18295e-06
8.04328e-06
-3.13954e-06
8.91631e-06
-4.02614e-06
9.14447e-06
-4.83801e-06
8.99353e-06
-5.59524e-06
8.59875e-06
-6.32635e-06
7.99534e-06
-7.05877e-06
7.14605e-06
-7.81155e-06
5.96442e-06
-8.5871e-06
4.33611e-06
-9.35909e-06
2.1422e-06
-1.00522e-05
-7.1065e-07
-1.05322e-05
-4.22941e-06
-1.05669e-05
-8.29979e-06
-9.84018e-06
-1.25313e-05
-8.03624e-06
-1.60861e-05
-5.10955e-06
-1.74658e-05
-1.79843e-06
-1.45999e-05
-6.13116e-06
-4.80719e-07
3.13786e-06
-1.38877e-06
7.02444e-06
-2.34754e-06
9.00204e-06
-3.18608e-06
9.75485e-06
-3.86419e-06
9.82259e-06
-4.40063e-06
9.52997e-06
-4.83661e-06
9.03472e-06
-5.22076e-06
8.3795e-06
-5.60328e-06
7.52858e-06
-6.03256e-06
6.39369e-06
-6.55019e-06
4.85375e-06
-7.18193e-06
2.77393e-06
-7.90447e-06
1.18949e-08
-8.6568e-06
-3.47708e-06
-9.2353e-06
-7.72129e-06
-9.28915e-06
-1.24774e-05
-8.31818e-06
-1.70571e-05
-5.90121e-06
-1.98828e-05
-2.38819e-06
-1.81129e-05
-8.51935e-06
-6.55617e-07
3.79347e-06
-1.69793e-06
8.06675e-06
-2.60862e-06
9.91273e-06
-3.22893e-06
1.03752e-05
-3.56838e-06
1.0162e-05
-3.68741e-06
9.649e-06
-3.65675e-06
9.00407e-06
-3.54758e-06
8.27033e-06
-3.43143e-06
7.41243e-06
-3.38199e-06
6.34425e-06
-3.47729e-06
4.94906e-06
-3.7877e-06
3.08434e-06
-4.38183e-06
6.06021e-07
-5.24864e-06
-2.61027e-06
-6.30138e-06
-6.66855e-06
-7.23902e-06
-1.15398e-05
-7.46367e-06
-1.68324e-05
-6.1533e-06
-2.11931e-05
-2.97435e-06
-2.12918e-05
-1.14937e-05
-1.00006e-06
4.79354e-06
-2.22723e-06
9.29391e-06
-2.97887e-06
1.06644e-05
-3.19705e-06
1.05933e-05
-3.00118e-06
9.96617e-06
-2.52e-06
9.16783e-06
-1.86299e-06
8.34705e-06
-1.12374e-06
7.53108e-06
-3.89948e-07
6.67863e-06
2.47278e-07
5.70702e-06
6.9237e-07
4.50396e-06
8.31066e-07
2.94565e-06
5.45939e-07
8.91149e-07
-2.54712e-07
-1.80961e-06
-1.6072e-06
-5.31607e-06
-3.36647e-06
-9.7805e-06
-4.99891e-06
-1.52e-05
-5.38544e-06
-2.08066e-05
-3.33038e-06
-2.33469e-05
-1.48241e-05
-1.63291e-06
6.42645e-06
-2.98091e-06
1.06419e-05
-3.2382e-06
1.09217e-05
-2.68016e-06
1.00353e-05
-1.63068e-06
8.91669e-06
-3.08642e-07
7.84579e-06
1.14136e-06
6.89705e-06
2.61574e-06
6.0567e-06
4.0275e-06
5.26687e-06
5.28827e-06
4.44625e-06
6.29312e-06
3.49911e-06
6.9181e-06
2.32067e-06
7.01234e-06
7.96911e-07
6.40832e-06
-1.2056e-06
4.94727e-06
-3.85501e-06
2.5665e-06
-7.39973e-06
-4.41361e-07
-1.21921e-05
-3.00552e-06
-1.82424e-05
-3.08346e-06
-2.32689e-05
-1.79075e-05
-2.61254e-06
9.03898e-06
-3.36953e-06
1.13989e-05
-2.22632e-06
9.77845e-06
-2.06419e-07
8.0154e-06
2.11961e-06
6.59066e-06
4.5e-06
5.4654e-06
6.81484e-06
4.58221e-06
8.99594e-06
3.8756e-06
1.0991e-05
3.27186e-06
1.27403e-05
2.69688e-06
1.41616e-05
2.07785e-06
1.51392e-05
1.34303e-06
1.55162e-05
4.19963e-07
1.51004e-05
-7.89856e-07
1.36426e-05
-2.39717e-06
1.08751e-05
-4.63226e-06
6.68381e-06
-8.0008e-06
1.77901e-06
-1.33377e-05
-1.42137e-06
-2.00686e-05
-1.93289e-05
-2.5808e-06
1.16198e-05
-2.17215e-08
8.83984e-06
4.20158e-06
5.55514e-06
8.24714e-06
3.96985e-06
1.18526e-05
2.98519e-06
1.50309e-05
2.28716e-06
1.78209e-05
1.79212e-06
2.02618e-05
1.43478e-06
2.2377e-05
1.15658e-06
2.41625e-05
9.11395e-07
2.55784e-05
6.62e-07
2.65435e-05
3.77927e-07
2.69158e-05
4.76202e-08
2.65476e-05
-4.21623e-07
2.51534e-05
-1.00296e-06
2.23594e-05
-1.83829e-06
1.76425e-05
-3.28386e-06
1.07071e-05
-6.40226e-06
3.09403e-06
-1.24555e-05
-1.62349e-05
1.16198e-05
2.04596e-05
2.60148e-05
2.99846e-05
3.29698e-05
3.5257e-05
3.70491e-05
3.84839e-05
3.96404e-05
4.05518e-05
4.12138e-05
4.15918e-05
4.16394e-05
4.12178e-05
4.02148e-05
3.83765e-05
3.50926e-05
2.86904e-05
1.62349e-05
)
;

boundaryField
{
    movingWall
    {
        type            calculated;
        value           uniform 0;
    }
    fixedWalls
    {
        type            calculated;
        value           uniform 0;
    }
    frontAndBack
    {
        type            empty;
        value           nonuniform 0();
    }
}


// ************************************************************************* //
