/*--------------------------------*- C++ -*----------------------------------*\
  =========                 |
  \\      /  F ield         | OpenFOAM: The Open Source CFD Toolbox
   \\    /   O peration     | Website:  https://openfoam.org
    \\  /    A nd           | Version:  7
     \\/     M anipulation  |
\*---------------------------------------------------------------------------*/
FoamFile
{
    version     2.0;
    format      ascii;
    class       volVectorField;
    location    "0.3";
    object      U;
}
// * * * * * * * * * * * * * * * * * * * * * * * * * * * * * * * * * * * * * //

dimensions      [0 1 -1 0 0 0 0];

internalField   nonuniform List<vector> 
400
(
(0.000144109 -0.000145603 0)
(-9.37886e-05 0.000154239 0)
(-0.00124694 0.000463349 0)
(-0.00301094 0.000650982 0)
(-0.00510363 0.000734805 0)
(-0.00729599 0.00074384 0)
(-0.00940673 0.000696396 0)
(-0.0112827 0.000599397 0)
(-0.0127801 0.000452277 0)
(-0.013756 0.000253317 0)
(-0.0140761 6.45584e-06 0)
(-0.0136375 -0.000273627 0)
(-0.0124028 -0.000555232 0)
(-0.0104365 -0.000793229 0)
(-0.00793071 -0.000935193 0)
(-0.00520554 -0.000934353 0)
(-0.00267041 -0.00076624 0)
(-0.000741892 -0.000444839 0)
(0.000250709 -4.52225e-05 0)
(0.000239995 0.000225844 0)
(-0.000158561 8.59011e-05 0)
(-0.00157754 0.00153724 0)
(-0.00486713 0.00286876 0)
(-0.00937088 0.00371403 0)
(-0.0145209 0.00409899 0)
(-0.0198465 0.00410629 0)
(-0.0249314 0.00379937 0)
(-0.0294024 0.00321016 0)
(-0.0329129 0.0023494 0)
(-0.0351371 0.00122967 0)
(-0.035791 -0.000108112 0)
(-0.0346756 -0.00157237 0)
(-0.0317421 -0.00300711 0)
(-0.0271586 -0.00420169 0)
(-0.0213505 -0.00492274 0)
(-0.0149942 -0.0049717 0)
(-0.00893539 -0.0042573 0)
(-0.00402347 -0.00286226 0)
(-0.00092974 -0.00110649 0)
(4.72147e-05 0.000284151 0)
(-0.000517521 0.00129028 0)
(-0.0031856 0.00490571 0)
(-0.00850451 0.00790674 0)
(-0.0153872 0.0098149 0)
(-0.0230418 0.010666 0)
(-0.0308527 0.0106012 0)
(-0.0382584 0.00974181 0)
(-0.0447437 0.00816014 0)
(-0.049827 0.00589653 0)
(-0.0530591 0.00300484 0)
(-0.0540503 -0.000393447 0)
(-0.0525267 -0.00406317 0)
(-0.0484115 -0.00763064 0)
(-0.0419118 -0.0106049 0)
(-0.0335778 -0.0124496 0)
(-0.0243073 -0.0127122 0)
(-0.0152479 -0.0111878 0)
(-0.00758484 -0.00806729 0)
(-0.00233939 -0.0040368 0)
(-0.000217558 -0.000441695 0)
(-0.000821779 0.00334165 0)
(-0.00463156 0.00998758 0)
(-0.011843 0.0150871 0)
(-0.0208939 0.0182464 0)
(-0.0307718 0.0195909 0)
(-0.0407559 0.0193516 0)
(-0.0501958 0.0177199 0)
(-0.0584893 0.0148131 0)
(-0.0650664 0.0107041 0)
(-0.0693819 0.0054938 0)
(-0.0709447 -0.00060333 0)
(-0.0693766 -0.0071855 0)
(-0.0645111 -0.013617 0)
(-0.0565101 -0.0190587 0)
(-0.045959 -0.0225788 0)
(-0.033912 -0.0233654 0)
(-0.0218096 -0.0210106 0)
(-0.0112359 -0.0157759 0)
(-0.00369269 -0.00874039 0)
(-0.000429611 -0.00188993 0)
(-0.00107879 0.00612681 0)
(-0.0059183 0.0166096 0)
(-0.0148859 0.0241876 0)
(-0.025956 0.0287349 0)
(-0.0379048 0.0305742 0)
(-0.0499316 0.0300795 0)
(-0.0613351 0.0275312 0)
(-0.0714674 0.0230908 0)
(-0.0796999 0.0168515 0)
(-0.0854018 0.00894121 0)
(-0.0879615 -0.00035306 0)
(-0.0868432 -0.0104654 0)
(-0.0817039 -0.020493 0)
(-0.0725535 -0.029192 0)
(-0.0599114 -0.0351237 0)
(-0.0449333 -0.0369579 0)
(-0.0293861 -0.033914 0)
(-0.0153914 -0.0262117 0)
(-0.00514204 -0.0153257 0)
(-0.000615343 -0.00400738 0)
(-0.00130598 0.00956754 0)
(-0.00708901 0.0246611 0)
(-0.0176973 0.0351048 0)
(-0.0306755 0.0411942 0)
(-0.0446085 0.0435619 0)
(-0.0586407 0.042789 0)
(-0.0720547 0.0392704 0)
(-0.0841913 0.0332072 0)
(-0.0943902 0.0246854 0)
(-0.101941 0.0138164 0)
(-0.106079 0.000907821 0)
(-0.106057 -0.0133628 0)
(-0.101259 -0.0278333 0)
(-0.0914026 -0.0408079 0)
(-0.0768053 -0.0502023 0)
(-0.0586318 -0.0539309 0)
(-0.0389887 -0.0505553 0)
(-0.0207041 -0.0400322 0)
(-0.00697498 -0.0242148 0)
(-0.000835467 -0.00688338 0)
(-0.0015146 0.0136094 0)
(-0.00817656 0.0340481 0)
(-0.0203268 0.0477429 0)
(-0.0351135 0.0555489 0)
(-0.050955 0.0585218 0)
(-0.0669695 0.0575214 0)
(-0.0824586 0.0530859 0)
(-0.0967899 0.0454474 0)
(-0.109301 0.034644 0)
(-0.119218 0.0207033 0)
(-0.125618 0.00386747 0)
(-0.127484 -0.0151679 0)
(-0.123825 -0.0350302 0)
(-0.113923 -0.0535534 0)
(-0.0977093 -0.0678603 0)
(-0.0761794 -0.0748002 0)
(-0.0517026 -0.0718383 0)
(-0.0279513 -0.0582596 0)
(-0.00954926 -0.0361795 0)
(-0.0011637 -0.0107794 0)
(-0.00170979 0.018213 0)
(-0.00919561 0.0446888 0)
(-0.022788 0.0620022 0)
(-0.0392598 0.071703 0)
(-0.0568846 0.0753887 0)
(-0.0747844 0.0742759 0)
(-0.0923192 0.0690799 0)
(-0.108927 0.0600542 0)
(-0.123986 0.04714 0)
(-0.136695 0.0301943 0)
(-0.145997 0.009277 0)
(-0.150589 -0.0150216 0)
(-0.149042 -0.0412394 0)
(-0.140068 -0.066782 0)
(-0.122981 -0.0878713 0)
(-0.0983263 -0.0999486 0)
(-0.0684841 -0.0987776 0)
(-0.0379601 -0.0822619 0)
(-0.0132897 -0.0523952 0)
(-0.00169253 -0.0161627 0)
(-0.00189351 0.0233433 0)
(-0.0101485 0.0564991 0)
(-0.025063 0.077756 0)
(-0.0430336 0.0894989 0)
(-0.0622017 0.0939974 0)
(-0.0817209 0.0929149 0)
(-0.101049 0.0871849 0)
(-0.119744 0.0770786 0)
(-0.137285 0.0623926 0)
(-0.152911 0.0427231 0)
(-0.165495 0.0178152 0)
(-0.173513 -0.0120141 0)
(-0.175109 -0.0453929 0)
(-0.168347 -0.0794425 0)
(-0.151713 -0.109492 0)
(-0.124909 -0.129296 0)
(-0.0898345 -0.132198 0)
(-0.0514933 -0.113607 0)
(-0.0187026 -0.0744538 0)
(-0.00255168 -0.0237482 0)
(-0.00207114 0.0289661 0)
(-0.011046 0.0693836 0)
(-0.0271346 0.0948242 0)
(-0.0463219 0.108664 0)
(-0.0666142 0.114 0)
(-0.0872201 0.113047 0)
(-0.107734 0.107011 0)
(-0.127885 0.09619 0)
(-0.147327 0.080204 0)
(-0.165436 0.0583144 0)
(-0.181151 0.0298282 0)
(-0.192869 -0.00539361 0)
(-0.198446 -0.0463152 0)
(-0.195355 -0.0900388 0)
(-0.181128 -0.131214 0)
(-0.154215 -0.161851 0)
(-0.11529 -0.172214 0)
(-0.0690121 -0.153698 0)
(-0.0263805 -0.104295 0)
(-0.00393997 -0.0345617 0)
(-0.00226391 0.035062 0)
(-0.0119449 0.0832462 0)
(-0.0290474 0.11296 0)
(-0.0490532 0.128768 0)
(-0.069817 0.134788 0)
(-0.0906277 0.133918 0)
(-0.111255 0.127701 0)
(-0.131649 0.116492 0)
(-0.151715 0.099733 0)
(-0.171092 0.0763177 0)
(-0.188963 0.0450329 0)
(-0.203899 0.0051239 0)
(-0.213741 -0.0429766 0)
(-0.215616 -0.0967463 0)
(-0.206184 -0.150637 0)
(-0.182356 -0.19526 0)
(-0.14273 -0.217511 0)
(-0.0902201 -0.203108 0)
(-0.0369401 -0.143971 0)
(-0.00616618 -0.0500262 0)
(-0.00253106 0.041671 0)
(-0.0130108 0.0980366 0)
(-0.0309988 0.131856 0)
(-0.0513029 0.149186 0)
(-0.0716121 0.155434 0)
(-0.0913444 0.15433 0)
(-0.110493 0.147835 0)
(-0.129282 0.136404 0)
(-0.147939 0.119341 0)
(-0.166487 0.0952041 0)
(-0.184561 0.0622536 0)
(-0.201201 0.0190313 0)
(-0.214629 -0.0348667 0)
(-0.222082 -0.09775 0)
(-0.21973 -0.164625 0)
(-0.202989 -0.225577 0)
(-0.167713 -0.264599 0)
(-0.113354 -0.260559 0)
(-0.0507781 -0.195078 0)
(-0.00967453 -0.0720387 0)
(-0.00301059 0.0489885 0)
(-0.0146151 0.113842 0)
(-0.033456 0.151174 0)
(-0.0534028 0.169086 0)
(-0.072017 0.174659 0)
(-0.0889658 0.172624 0)
(-0.104553 0.165425 0)
(-0.119332 0.153671 0)
(-0.133907 0.136603 0)
(-0.148781 0.112535 0)
(-0.164206 0.0792999 0)
(-0.179967 0.0347685 0)
(-0.19507 -0.0224237 0)
(-0.207477 -0.0918307 0)
(-0.21357 -0.169891 0)
(-0.207819 -0.247544 0)
(-0.183254 -0.307409 0)
(-0.134412 -0.321731 0)
(-0.0675023 -0.257634 0)
(-0.0149862 -0.102911 0)
(-0.00399597 0.0575526 0)
(-0.0174851 0.131023 0)
(-0.037276 0.170552 0)
(-0.055979 0.187376 0)
(-0.0712367 0.190799 0)
(-0.0832409 0.186698 0)
(-0.0927664 0.178019 0)
(-0.100767 0.165545 0)
(-0.108262 0.148531 0)
(-0.116259 0.125187 0)
(-0.125686 0.093104 0)
(-0.137228 0.0496696 0)
(-0.150959 -0.00734637 0)
(-0.166158 -0.0791256 0)
(-0.180309 -0.164078 0)
(-0.18806 -0.255665 0)
(-0.180489 -0.337771 0)
(-0.146775 -0.378488 0)
(-0.0849774 -0.328361 0)
(-0.0224183 -0.144901 0)
(-0.00607455 0.068591 0)
(-0.0229124 0.150363 0)
(-0.0437224 0.189495 0)
(-0.0596915 0.202527 0)
(-0.0691819 0.201689 0)
(-0.0734573 0.19402 0)
(-0.0740227 0.182848 0)
(-0.0723274 0.16907 0)
(-0.0698022 0.151983 0)
(-0.0678949 0.129824 0)
(-0.0681241 0.100156 0)
(-0.0719922 0.0601309 0)
(-0.0808857 0.00695111 0)
(-0.0955283 -0.0618261 0)
(-0.115187 -0.14704 0)
(-0.13638 -0.246015 0)
(-0.150161 -0.347143 0)
(-0.141544 -0.419389 0)
(-0.0982176 -0.399083 0)
(-0.0313746 -0.199221 0)
(-0.0103255 0.0846795 0)
(-0.0328954 0.173068 0)
(-0.0539395 0.206936 0)
(-0.0639552 0.212105 0)
(-0.0636693 0.204343 0)
(-0.0563338 0.191496 0)
(-0.0444943 0.176908 0)
(-0.0301539 0.161375 0)
(-0.0150828 0.144167 0)
(-0.000998631 0.123599 0)
(0.0101875 0.0973529 0)
(0.0164007 0.0626959 0)
(0.0154178 0.0166729 0)
(0.00502183 -0.0436992 0)
(-0.0163428 -0.121349 0)
(-0.048131 -0.217841 0)
(-0.0841496 -0.328988 0)
(-0.108464 -0.431637 0)
(-0.0987764 -0.456504 0)
(-0.0390799 -0.265167 0)
(-0.0183532 0.111142 0)
(-0.0493715 0.199825 0)
(-0.0659665 0.219411 0)
(-0.0622403 0.211152 0)
(-0.0449605 0.193823 0)
(-0.0203826 0.174833 0)
(0.00789373 0.156731 0)
(0.0375298 0.139762 0)
(0.0667104 0.122977 0)
(0.0937549 0.104744 0)
(0.116789 0.0829792 0)
(0.133579 0.0553542 0)
(0.141428 0.0192354 0)
(0.137197 -0.0283585 0)
(0.117505 -0.0910342 0)
(0.0795517 -0.173551 0)
(0.0243037 -0.280241 0)
(-0.0365547 -0.402946 0)
(-0.0752058 -0.482592 0)
(-0.038962 -0.338007 0)
(-0.0306358 0.158254 0)
(-0.0683007 0.225593 0)
(-0.0617562 0.21399 0)
(-0.0270466 0.187203 0)
(0.0182202 0.160587 0)
(0.0661247 0.13742 0)
(0.113493 0.118127 0)
(0.158684 0.101923 0)
(0.200612 0.08747 0)
(0.238247 0.0732026 0)
(0.27024 0.0574267 0)
(0.294693 0.0383744 0)
(0.308909 0.0141308 0)
(0.309546 -0.0175829 0)
(0.292256 -0.0596875 0)
(0.251721 -0.117645 0)
(0.183293 -0.201862 0)
(0.0879169 -0.323417 0)
(-0.0116928 -0.452462 0)
(-0.0170065 -0.395166 0)
(-0.0275753 0.228352 0)
(-0.0408104 0.22536 0)
(0.0379162 0.16596 0)
(0.125099 0.1261 0)
(0.202674 0.0986479 0)
(0.270493 0.0783719 0)
(0.330011 0.0633081 0)
(0.38217 0.0519273 0)
(0.427616 0.042764 0)
(0.466592 0.0345276 0)
(0.498702 0.0260733 0)
(0.522814 0.0163465 0)
(0.536663 0.00430239 0)
(0.537568 -0.0108887 0)
(0.521206 -0.0310671 0)
(0.481381 -0.0595847 0)
(0.409291 -0.105734 0)
(0.291889 -0.19317 0)
(0.129843 -0.332452 0)
(0.0663832 -0.368942 0)
(0.26205 0.138017 0)
(0.325687 0.119044 0)
(0.457488 0.0779391 0)
(0.562137 0.0520364 0)
(0.633314 0.036117 0)
(0.684837 0.0256235 0)
(0.724746 0.0185801 0)
(0.756572 0.013809 0)
(0.782215 0.0104212 0)
(0.802729 0.00775408 0)
(0.818413 0.00530811 0)
(0.8289 0.00270005 0)
(0.833248 -0.000450896 0)
(0.829852 -0.00409178 0)
(0.815981 -0.00888716 0)
(0.787931 -0.0157135 0)
(0.737992 -0.0269979 0)
(0.648309 -0.0516759 0)
(0.474845 -0.111379 0)
(0.341562 -0.155831 0)
)
;

boundaryField
{
    movingWall
    {
        type            fixedValue;
        value           uniform (1 0 0);
    }
    fixedWalls
    {
        type            noSlip;
    }
    frontAndBack
    {
        type            empty;
    }
}


// ************************************************************************* //
