/*--------------------------------*- C++ -*----------------------------------*\
  =========                 |
  \\      /  F ield         | OpenFOAM: The Open Source CFD Toolbox
   \\    /   O peration     | Website:  https://openfoam.org
    \\  /    A nd           | Version:  7
     \\/     M anipulation  |
\*---------------------------------------------------------------------------*/
FoamFile
{
    version     2.0;
    format      ascii;
    class       volScalarField;
    location    "0.2";
    object      p;
}
// * * * * * * * * * * * * * * * * * * * * * * * * * * * * * * * * * * * * * //

dimensions      [0 2 -2 0 0 0 0];

internalField   nonuniform List<scalar> 
400
(
6.92713e-09
-3.43668e-06
-5.20832e-06
-5.01714e-06
-2.80852e-06
1.36098e-06
7.29219e-06
1.46815e-05
2.3161e-05
3.23203e-05
4.17214e-05
5.09139e-05
5.94516e-05
6.69095e-05
7.2901e-05
7.71045e-05
7.93075e-05
7.94519e-05
7.76082e-05
7.40841e-05
6.97203e-06
2.24672e-06
5.44076e-08
6.04544e-08
1.89852e-06
5.46997e-06
1.06269e-05
1.71149e-05
2.46084e-05
3.27343e-05
4.10885e-05
4.9253e-05
5.68139e-05
6.33808e-05
6.86059e-05
7.22137e-05
7.40414e-05
7.39887e-05
7.17065e-05
6.68825e-05
3.93927e-06
-2.39023e-06
-5.4078e-06
-5.64138e-06
-3.66628e-06
3.58209e-07
6.24727e-06
1.36984e-05
2.23302e-05
3.17086e-05
4.13633e-05
5.08044e-05
5.9546e-05
6.71259e-05
7.31277e-05
7.7215e-05
7.91795e-05
7.88587e-05
7.57019e-05
6.92161e-05
-7.51926e-06
-1.57572e-05
-1.96422e-05
-1.98722e-05
-1.721e-05
-1.18741e-05
-4.10907e-06
5.69346e-06
1.70422e-05
2.93775e-05
4.20904e-05
5.45428e-05
6.60972e-05
7.61426e-05
8.41239e-05
8.95877e-05
9.22476e-05
9.18794e-05
8.77608e-05
7.92524e-05
-2.98318e-05
-4.08368e-05
-4.58326e-05
-4.57647e-05
-4.16772e-05
-3.38776e-05
-2.27035e-05
-8.68824e-06
7.49922e-06
2.50928e-05
4.32524e-05
6.10888e-05
7.7705e-05
9.22333e-05
0.000103878
0.000111983
0.000116127
0.000115991
0.000110598
9.91094e-05
-6.74093e-05
-8.24337e-05
-8.88975e-05
-8.813e-05
-8.16062e-05
-6.97685e-05
-5.30891e-05
-3.2306e-05
-8.34863e-06
1.77086e-05
4.46734e-05
7.1265e-05
9.61725e-05
0.000118111
0.000135888
0.000148507
0.00015532
0.000155845
0.000148725
0.000132824
-0.000127272
-0.00014801
-0.000156405
-0.000154365
-0.000144004
-0.000125957
-0.000100874
-6.97628e-05
-3.39095e-05
5.17889e-06
4.58009e-05
8.60895e-05
0.000124089
0.000157849
0.000185529
0.000205566
0.000216915
0.00021883
0.000209387
0.000187038
-0.00022017
-0.00024891
-0.000259839
-0.000255727
-0.000239619
-0.000212404
-0.000174936
-0.00012855
-7.49761e-05
-1.62943e-05
4.50888e-05
0.00010646
0.000164861
0.000217285
0.000260817
0.000292927
0.000311871
0.000316447
0.000303903
0.00027215
-0.000362115
-0.000401937
-0.000416219
-0.000409008
-0.000384681
-0.000344436
-0.000289305
-0.000220946
-0.000141577
-5.39709e-05
3.85424e-05
0.000132095
0.00022217
0.000304057
0.000373043
0.00042489
0.000456564
0.000466036
0.000449344
0.00040374
-0.00057651
-0.000631546
-0.000650383
-0.000638963
-0.000603541
-0.000545631
-0.000466298
-0.000367364
-0.000251424
-0.000121967
1.65552e-05
0.000158946
0.00029818
0.000426831
0.000537101
0.000621644
0.000674912
0.000693255
0.00067092
0.000604505
-0.000896896
-0.000972667
-0.000997989
-0.000981637
-0.000932474
-0.000852237
-0.000741615
-0.000602092
-0.000436172
-0.00024782
-4.27352e-05
0.00017326
0.000388812
0.000592334
0.00077069
0.000910657
0.00100152
0.00103615
0.00100593
0.000907238
-0.0013702
-0.00147406
-0.00150921
-0.00148869
-0.00142498
-0.00131974
-0.00117244
-0.000983076
-0.000752811
-0.000484839
-0.000184873
0.000138644
0.000471933
0.000796468
0.0010897
0.00132696
0.00148638
0.00155246
0.00151111
0.00135969
-0.00206006
-0.00220182
-0.00225276
-0.00223242
-0.00215838
-0.00203176
-0.00184928
-0.00160745
-0.00130363
-0.000937232
-0.000511392
-3.47761e-05
0.000478373
0.000999628
0.00149109
0.00190634
0.00219855
0.00233075
0.00227457
0.00202997
-0.00304943
-0.0032423
-0.00331936
-0.00331046
-0.00324079
-0.00311045
-0.00291123
-0.00263284
-0.00226432
-0.00179587
-0.00122252
-0.000547865
0.000226253
0.00105959
0.00189429
0.00264508
0.00321024
0.00349589
0.00342916
0.00300546
-0.00444233
-0.00470379
-0.00482234
-0.00484615
-0.00481297
-0.00472189
-0.00455766
-0.00429959
-0.00392279
-0.00339965
-0.00270377
-0.00181493
-0.000728077
0.000554445
0.00196476
0.00336619
0.00454543
0.00524809
0.00523479
0.00443911
-0.00637283
-0.00672808
-0.00690007
-0.00697503
-0.00702313
-0.00704724
-0.0070231
-0.00691717
-0.00668873
-0.00628749
-0.0056506
-0.00470958
-0.00339702
-0.00164388
0.000593222
0.00320006
0.00580569
0.00773699
0.00817721
0.00677894
-0.00898381
-0.00940897
-0.0096608
-0.00985448
-0.0100785
-0.0103359
-0.0106023
-0.0108478
-0.0110353
-0.0111172
-0.0110247
-0.0106421
-0.00977098
-0.00812349
-0.00545795
-0.00145273
0.00364581
0.00857533
0.0111923
0.0103725
-0.0135918
-0.0137173
-0.01338
-0.0132334
-0.0134385
-0.0139364
-0.0146407
-0.0154942
-0.0164677
-0.0175527
-0.0187426
-0.0199703
-0.0209685
-0.0211519
-0.0196575
-0.0154089
-0.00743473
0.00315036
0.0124741
0.017132
-0.0147354
-0.0157602
-0.0166597
-0.0175521
-0.0184849
-0.0194772
-0.0205821
-0.0218685
-0.0234186
-0.0253233
-0.0276504
-0.0303564
-0.0331588
-0.035253
-0.0343689
-0.0275767
-0.0127889
0.0103856
0.0371398
0.0613279
-0.0655822
-0.0337324
-0.0214445
-0.0178952
-0.0168229
-0.0167178
-0.0173707
-0.0186997
-0.0205917
-0.022934
-0.0255507
-0.0280518
-0.0295363
-0.0283191
-0.0215388
-0.00430075
0.0285554
0.0790023
0.140541
0.204263
)
;

boundaryField
{
    movingWall
    {
        type            zeroGradient;
    }
    fixedWalls
    {
        type            zeroGradient;
    }
    frontAndBack
    {
        type            empty;
    }
}


// ************************************************************************* //
