/*--------------------------------*- C++ -*----------------------------------*\
  =========                 |
  \\      /  F ield         | OpenFOAM: The Open Source CFD Toolbox
   \\    /   O peration     | Website:  https://openfoam.org
    \\  /    A nd           | Version:  7
     \\/     M anipulation  |
\*---------------------------------------------------------------------------*/
FoamFile
{
    version     2.0;
    format      ascii;
    class       surfaceScalarField;
    location    "0.2";
    object      phi;
}
// * * * * * * * * * * * * * * * * * * * * * * * * * * * * * * * * * * * * * //

dimensions      [0 3 -1 0 0 0 0];

internalField   nonuniform List<scalar> 
760
(
-1.55919e-09
1.55848e-09
-6.38584e-09
4.82682e-09
-1.31682e-08
6.78266e-09
-2.05859e-08
7.41805e-09
-2.77476e-08
7.16197e-09
-3.4113e-08
6.36566e-09
-3.93508e-08
5.23803e-09
-4.32459e-08
3.89514e-09
-4.56554e-08
2.40949e-09
-4.64934e-08
8.37965e-10
-4.57273e-08
-7.6617e-10
-4.33779e-08
-2.34936e-09
-3.95214e-08
-3.85643e-09
-3.42945e-08
-5.22677e-09
-2.79115e-08
-6.38272e-09
-2.07092e-08
-7.20203e-09
-1.32394e-08
-7.46963e-09
-6.40962e-09
-6.82972e-09
-1.55646e-09
-4.85315e-09
-1.55645e-09
-4.07791e-09
5.63651e-09
-1.34367e-08
1.41859e-08
-2.54821e-08
1.88283e-08
-3.82622e-08
2.01983e-08
-5.04754e-08
1.93752e-08
-6.12997e-08
1.71899e-08
-7.02037e-08
1.41417e-08
-7.68266e-08
1.05176e-08
-8.09237e-08
6.50614e-09
-8.23469e-08
2.26066e-09
-8.10404e-08
-2.07313e-09
-7.70408e-08
-6.34919e-09
-7.04806e-08
-1.04168e-08
-6.15946e-08
-1.41128e-08
-5.0742e-08
-1.72352e-08
-3.84633e-08
-1.94809e-08
-2.55988e-08
-2.03343e-08
-1.34762e-08
-1.89526e-08
-4.07354e-09
-1.42562e-08
-5.62991e-09
-5.28724e-09
1.09241e-08
-1.74572e-08
2.63563e-08
-3.30381e-08
3.44095e-08
-4.94733e-08
3.66338e-08
-6.51227e-08
3.50248e-08
-7.89686e-08
3.10359e-08
-9.03537e-08
2.55269e-08
-9.88291e-08
1.8993e-08
-1.04086e-07
1.17633e-08
-1.05935e-07
4.10977e-09
-1.043e-07
-3.70793e-09
-9.92231e-08
-1.14262e-08
-9.08646e-08
-1.8775e-08
-7.95152e-08
-2.54619e-08
-6.56211e-08
-3.11292e-08
-4.9854e-08
-3.52478e-08
-3.32645e-08
-3.69237e-08
-1.75393e-08
-3.46778e-08
-5.28415e-09
-2.65113e-08
-1.09142e-08
-6.83597e-09
1.77602e-08
-2.26083e-08
4.21285e-08
-4.27908e-08
5.45918e-08
-6.40618e-08
5.79045e-08
-8.43077e-08
5.52705e-08
-1.02227e-07
4.89551e-08
-1.16981e-07
4.02808e-08
-1.27993e-07
3.00048e-08
-1.34862e-07
1.86319e-08
-1.37334e-07
6.58188e-09
-1.35301e-07
-5.74158e-09
-1.28802e-07
-1.79248e-08
-1.18035e-07
-2.95427e-08
-1.03362e-07
-4.0134e-08
-8.53552e-08
-4.91364e-08
-6.48791e-08
-5.5724e-08
-4.32982e-08
-5.85045e-08
-2.28172e-08
-5.51587e-08
-6.85534e-09
-4.24731e-08
-1.77697e-08
-9.24712e-09
2.70074e-08
-3.04873e-08
6.33685e-08
-5.76106e-08
8.1715e-08
-8.6173e-08
8.64669e-08
-1.13365e-07
8.24622e-08
-1.37462e-07
7.30522e-08
-1.5735e-07
6.01687e-08
-1.72255e-07
4.49097e-08
-1.81628e-07
2.80052e-08
-1.85112e-07
1.00663e-08
-1.82538e-07
-8.31604e-09
-1.73935e-07
-2.65271e-08
-1.59546e-07
-4.39325e-08
-1.39841e-07
-5.98382e-08
-1.1558e-07
-7.33981e-08
-8.79278e-08
-8.33761e-08
-5.87333e-08
-8.7699e-08
-3.09869e-08
-8.29052e-08
-9.32954e-09
-6.41306e-08
-2.70991e-08
-1.28674e-08
3.98745e-08
-4.22213e-08
9.2722e-08
-7.95924e-08
1.19086e-07
-1.18903e-07
1.25777e-07
-1.56344e-07
1.19903e-07
-1.89584e-07
1.06293e-07
-2.17112e-07
8.7696e-08
-2.3786e-07
6.56578e-08
-2.51055e-07
4.12003e-08
-2.56172e-07
1.51832e-08
-2.52933e-07
-1.15557e-08
-2.41332e-07
-3.81275e-08
-2.21659e-07
-6.36057e-08
-1.94533e-07
-8.6965e-08
-1.6098e-07
-1.06951e-07
-1.22616e-07
-1.2174e-07
-8.20176e-08
-1.28298e-07
-4.33544e-08
-1.21569e-07
-1.31017e-08
-9.43835e-08
-4.02005e-08
-1.81436e-08
5.80179e-08
-5.92203e-08
1.33799e-07
-1.11341e-07
1.71206e-07
-1.66108e-07
1.80544e-07
-2.18312e-07
1.72107e-07
-2.64781e-07
1.52762e-07
-3.03445e-07
1.26359e-07
-3.32814e-07
9.50277e-08
-3.51778e-07
6.01637e-08
-3.59541e-07
2.29464e-08
-3.55631e-07
-1.54663e-08
-3.39946e-07
-5.38121e-08
-3.12804e-07
-9.0748e-08
-2.75e-07
-1.24769e-07
-2.27936e-07
-1.54014e-07
-1.73881e-07
-1.75795e-07
-1.16492e-07
-1.85686e-07
-6.17043e-08
-1.76357e-07
-1.87191e-08
-1.37369e-07
-5.89196e-08
-2.56936e-08
8.37114e-08
-8.34161e-08
1.91521e-07
-1.5641e-07
2.442e-07
-2.33044e-07
2.57178e-07
-3.06195e-07
2.45257e-07
-3.71551e-07
2.18119e-07
-4.26277e-07
1.81086e-07
-4.68291e-07
1.37042e-07
-4.95973e-07
8.78458e-08
-5.08098e-07
3.50712e-08
-5.03842e-07
-1.9722e-08
-4.82867e-07
-7.47873e-08
-4.45444e-07
-1.28171e-07
-3.92544e-07
-1.77669e-07
-3.26059e-07
-2.20499e-07
-2.49196e-07
-2.52659e-07
-1.6723e-07
-2.67652e-07
-8.87432e-08
-2.54843e-07
-2.70069e-08
-1.99104e-07
-8.59267e-08
-3.63549e-08
1.20066e-07
-1.17407e-07
2.72573e-07
-2.19562e-07
3.46355e-07
-3.26754e-07
3.6437e-07
-4.29294e-07
3.47798e-07
-5.21375e-07
3.10199e-07
-5.99147e-07
2.58858e-07
-6.59704e-07
1.97599e-07
-7.00677e-07
1.28819e-07
-7.20149e-07
5.45436e-08
-7.16678e-07
-2.31931e-08
-6.89363e-07
-1.02102e-07
-6.38235e-07
-1.793e-07
-5.64336e-07
-2.51567e-07
-4.70134e-07
-3.14702e-07
-3.60161e-07
-3.62632e-07
-2.42132e-07
-3.85681e-07
-1.28676e-07
-3.68299e-07
-3.92303e-08
-2.8855e-07
-1.25157e-07
-5.12217e-08
1.71288e-07
-1.6457e-07
3.85921e-07
-3.06964e-07
4.8875e-07
-4.56349e-07
5.13755e-07
-5.99692e-07
4.9114e-07
-7.29284e-07
4.39792e-07
-8.39994e-07
3.69567e-07
-9.27811e-07
2.85417e-07
-9.89283e-07
1.90291e-07
-1.02139e-06
8.66505e-08
-1.02166e-06
-2.29264e-08
-9.87876e-07
-1.35882e-07
-9.1939e-07
-2.47785e-07
-8.16937e-07
-3.5402e-07
-6.83478e-07
-4.48162e-07
-5.25328e-07
-5.20781e-07
-3.53918e-07
-5.57091e-07
-1.88256e-07
-5.33962e-07
-5.73919e-08
-4.19414e-07
-1.82548e-07
-7.16661e-08
2.42954e-07
-2.29117e-07
5.43372e-07
-4.26269e-07
6.85901e-07
-6.33116e-07
7.20601e-07
-8.32392e-07
6.90417e-07
-1.01412e-06
6.21524e-07
-1.17167e-06
5.27111e-07
-1.29964e-06
4.13386e-07
-1.39306e-06
2.83718e-07
-1.44721e-06
1.40794e-07
-1.45813e-06
-1.20001e-08
-1.42054e-06
-1.73473e-07
-1.33224e-06
-3.36086e-07
-1.19255e-06
-4.93712e-07
-1.00426e-06
-6.36449e-07
-7.75789e-07
-7.49254e-07
-5.242e-07
-8.0868e-07
-2.78945e-07
-7.79218e-07
-8.48254e-08
-6.13533e-07
-2.67374e-07
-9.93332e-08
3.42287e-07
-3.16068e-07
7.60107e-07
-5.86489e-07
9.56322e-07
-8.70223e-07
1.00433e-06
-1.14488e-06
9.6507e-07
-1.39803e-06
8.74677e-07
-1.62152e-06
7.50602e-07
-1.80848e-06
6.00353e-07
-1.9521e-06
4.27329e-07
-2.04511e-06
2.33805e-07
-2.08129e-06
2.41864e-08
-2.04976e-06
-2.05003e-07
-1.94447e-06
-4.41374e-07
-1.76054e-06
-6.77641e-07
-1.49821e-06
-8.98782e-07
-1.1672e-06
-1.08027e-06
-7.92682e-07
-1.1832e-06
-4.21903e-07
-1.15e-06
-1.27472e-07
-9.07964e-07
-3.94846e-07
-1.3615e-07
4.78437e-07
-4.31192e-07
1.05515e-06
-7.97674e-07
1.3228e-06
-1.18191e-06
1.38858e-06
-1.55569e-06
1.33885e-06
-1.90447e-06
1.22346e-06
-2.21918e-06
1.06531e-06
-2.49198e-06
8.73147e-07
-2.7143e-06
6.49649e-07
-2.87605e-06
3.95556e-07
-2.96463e-06
1.12764e-07
-2.96627e-06
-2.03358e-07
-2.86262e-06
-5.45029e-07
-2.63865e-06
-9.01611e-07
-2.28497e-06
-1.25246e-06
-1.80732e-06
-1.55792e-06
-1.24016e-06
-1.75035e-06
-6.61366e-07
-1.72879e-06
-1.97452e-07
-1.37188e-06
-5.92298e-07
-1.84583e-07
6.6302e-07
-5.81357e-07
1.45192e-06
-1.07073e-06
1.81218e-06
-1.58216e-06
1.9e-06
-2.0814e-06
1.83809e-06
-2.5532e-06
1.69525e-06
-2.98939e-06
1.5015e-06
-3.38297e-06
1.26674e-06
-3.72524e-06
9.91912e-07
-4.00389e-06
6.74211e-07
-4.20125e-06
3.10119e-07
-4.29719e-06
-1.07419e-07
-4.25181e-06
-5.90409e-07
-4.02824e-06
-1.12517e-06
-3.5894e-06
-1.6913e-06
-2.91756e-06
-2.22976e-06
-2.04695e-06
-2.62097e-06
-1.10385e-06
-2.67189e-06
-3.25793e-07
-2.14993e-06
-9.18092e-07
-2.4924e-07
9.1226e-07
-7.77499e-07
1.98018e-06
-1.41973e-06
2.45441e-06
-2.08459e-06
2.56486e-06
-2.73314e-06
2.48665e-06
-3.35258e-06
2.31469e-06
-3.93951e-06
2.08843e-06
-4.49213e-06
1.81936e-06
-5.00643e-06
1.50621e-06
-5.47292e-06
1.14069e-06
-5.87185e-06
7.09056e-07
-6.17945e-06
2.00178e-07
-6.32845e-06
-4.4141e-07
-6.2363e-06
-1.21732e-06
-5.80195e-06
-2.12566e-06
-4.93065e-06
-3.10105e-06
-3.60774e-06
-3.94387e-06
-2.01095e-06
-4.26868e-06
-5.97804e-07
-3.56308e-06
-1.5159e-06
-3.40931e-07
1.25319e-06
-1.04516e-06
2.68441e-06
-1.87509e-06
3.28434e-06
-2.71061e-06
3.40038e-06
-3.5155e-06
3.29154e-06
-4.28768e-06
3.08687e-06
-5.03487e-06
2.83562e-06
-5.76699e-06
2.55148e-06
-6.4933e-06
2.23252e-06
-7.21837e-06
1.86577e-06
-7.93397e-06
1.42465e-06
-8.5978e-06
8.64013e-07
-9.17095e-06
1.31741e-07
-9.4626e-06
-9.25674e-07
-9.26987e-06
-2.31839e-06
-8.33233e-06
-4.03859e-06
-6.48042e-06
-5.79579e-06
-3.86735e-06
-6.88175e-06
-1.24118e-06
-6.18926e-06
-2.75707e-06
-5.01268e-07
1.75446e-06
-1.40589e-06
3.58903e-06
-2.4347e-06
4.31315e-06
-3.44926e-06
4.41494e-06
-4.40374e-06
4.24601e-06
-5.29731e-06
3.98045e-06
-6.14965e-06
3.68796e-06
-6.99017e-06
3.392e-06
-7.85261e-06
3.09496e-06
-8.76923e-06
2.78239e-06
-9.75952e-06
2.41494e-06
-1.08071e-05
1.91155e-06
-1.18049e-05
1.12956e-06
-1.25785e-05
-1.52081e-07
-1.28379e-05
-2.05893e-06
-1.21764e-05
-4.70012e-06
-1.02124e-05
-7.75976e-06
-6.84412e-06
-1.02501e-05
-2.71834e-06
-1.0315e-05
-5.47541e-06
-1.10952e-06
2.86397e-06
-2.50801e-06
4.98752e-06
-3.66544e-06
5.47058e-06
-4.64154e-06
5.39105e-06
-5.46459e-06
5.06905e-06
-6.15959e-06
4.67545e-06
-6.75365e-06
4.28202e-06
-7.28339e-06
3.92174e-06
-7.79112e-06
3.6027e-06
-8.31938e-06
3.31065e-06
-8.90482e-06
3.00038e-06
-9.56877e-06
2.5755e-06
-1.02965e-05
1.85728e-06
-1.09237e-05
4.75149e-07
-1.14929e-05
-1.48976e-06
-1.1693e-05
-4.49998e-06
-1.10024e-05
-8.45043e-06
-8.81558e-06
-1.24368e-05
-4.68712e-06
-1.44435e-05
-1.01625e-05
-3.37539e-06
6.23936e-06
-5.48978e-06
7.10191e-06
-5.99452e-06
5.97532e-06
-5.58549e-06
4.98202e-06
-4.75936e-06
4.24292e-06
-3.73734e-06
3.65343e-06
-2.62939e-06
3.17406e-06
-1.49467e-06
2.78702e-06
-3.63462e-07
2.47149e-06
7.46425e-07
2.20077e-06
1.80908e-06
1.93772e-06
2.76394e-06
1.62064e-06
3.45581e-06
1.16541e-06
3.46433e-06
4.6663e-07
2.91785e-06
-9.43278e-07
1.66693e-06
-3.24906e-06
-3.47613e-07
-6.43588e-06
-2.74166e-06
-1.00428e-05
-3.33006e-06
-1.38551e-05
-1.34926e-05
6.23936e-06
1.33413e-05
1.93166e-05
2.42986e-05
2.85415e-05
3.2195e-05
3.5369e-05
3.8156e-05
4.06275e-05
4.28283e-05
4.4766e-05
4.63867e-05
4.75521e-05
4.80187e-05
4.70754e-05
4.38264e-05
3.73905e-05
2.73477e-05
1.34926e-05
)
;

boundaryField
{
    movingWall
    {
        type            calculated;
        value           uniform 0;
    }
    fixedWalls
    {
        type            calculated;
        value           uniform 0;
    }
    frontAndBack
    {
        type            empty;
        value           nonuniform 0();
    }
}


// ************************************************************************* //
