/*--------------------------------*- C++ -*----------------------------------*\
  =========                 |
  \\      /  F ield         | OpenFOAM: The Open Source CFD Toolbox
   \\    /   O peration     | Website:  https://openfoam.org
    \\  /    A nd           | Version:  7
     \\/     M anipulation  |
\*---------------------------------------------------------------------------*/
FoamFile
{
    version     2.0;
    format      ascii;
    class       volVectorField;
    location    "0.2";
    object      U;
}
// * * * * * * * * * * * * * * * * * * * * * * * * * * * * * * * * * * * * * //

dimensions      [0 1 -1 0 0 0 0];

internalField   nonuniform List<vector> 
400
(
(-3.98554e-06 9.38012e-06 0)
(-3.35497e-05 3.6168e-05 0)
(-9.47396e-05 5.33884e-05 0)
(-0.000168493 5.94468e-05 0)
(-0.000242911 5.77565e-05 0)
(-0.000311393 5.14346e-05 0)
(-0.000369946 4.23481e-05 0)
(-0.000415972 3.15065e-05 0)
(-0.000447727 1.95141e-05 0)
(-0.000464083 6.83001e-06 0)
(-0.000464452 -6.11986e-06 0)
(-0.000448773 -1.89077e-05 0)
(-0.000417525 -3.10906e-05 0)
(-0.000371752 -4.21768e-05 0)
(-0.000313162 -5.15166e-05 0)
(-0.000244376 -5.80465e-05 0)
(-0.000169475 -5.98451e-05 0)
(-9.52085e-05 -5.37553e-05 0)
(-3.3596e-05 -3.63645e-05 0)
(-3.95576e-06 -9.35538e-06 0)
(-1.46595e-05 6.35676e-05 0)
(-7.79173e-05 0.00017278 0)
(-0.000189772 0.000234896 0)
(-0.000318645 0.00025432 0)
(-0.000446164 0.000244798 0)
(-0.000562753 0.000217438 0)
(-0.000662325 0.000178936 0)
(-0.00074061 0.00013309 0)
(-0.000794634 8.23387e-05 0)
(-0.000822454 2.86353e-05 0)
(-0.000823054 -2.61817e-05 0)
(-0.000796337 -8.02647e-05 0)
(-0.000743137 -0.000131712 0)
(-0.000665265 -0.00017845 0)
(-0.000565637 -0.000217871 0)
(-0.000448556 -0.000245974 0)
(-0.00032025 -0.000255867 0)
(-0.000190527 -0.000236298 0)
(-7.80022e-05 -0.000173524 0)
(-1.45989e-05 -6.34186e-05 0)
(-1.89669e-05 0.000160499 0)
(-0.00010121 0.000392916 0)
(-0.000246364 0.000516016 0)
(-0.000412597 0.000551018 0)
(-0.000576255 0.00052757 0)
(-0.000725481 0.000467757 0)
(-0.000852804 0.000384764 0)
(-0.000952934 0.000286205 0)
(-0.00102214 0.000177128 0)
(-0.00105796 6.168e-05 0)
(-0.00105906 -5.61892e-05 0)
(-0.00102528 -0.000172501 0)
(-0.000957595 -0.000283163 0)
(-0.000858249 -0.000383754 0)
(-0.000730855 -0.000468844 0)
(-0.000580757 -0.000530365 0)
(-0.000415667 -0.000554677 0)
(-0.000247853 -0.000519361 0)
(-0.000101435 -0.000394748 0)
(-1.88631e-05 -0.000160187 0)
(-2.44765e-05 0.00027926 0)
(-0.000130999 0.000666197 0)
(-0.000319116 0.00086549 0)
(-0.000534341 0.000919347 0)
(-0.00074608 0.000878112 0)
(-0.000939142 0.00077788 0)
(-0.00110401 0.000639876 0)
(-0.00123391 0.000476311 0)
(-0.00132403 0.000295325 0)
(-0.00137112 0.000103673 0)
(-0.00137338 -9.2159e-05 0)
(-0.00133045 -0.000285602 0)
(-0.0012435 -0.000469879 0)
(-0.00111528 -0.000637673 0)
(-0.000950371 -0.000780061 0)
(-0.000755638 -0.000883906 0)
(-0.000541055 -0.000927043 0)
(-0.000322598 -0.000872672 0)
(-0.000131813 -0.000670352 0)
(-2.43915e-05 -0.000278964 0)
(-3.32635e-05 0.000436141 0)
(-0.000176997 0.00102679 0)
(-0.000429984 0.00132619 0)
(-0.000719029 0.00140463 0)
(-0.00100331 0.00134002 0)
(-0.00126272 0.00118692 0)
(-0.00148464 0.000977002 0)
(-0.00166004 0.000728377 0)
(-0.00178242 0.000453115 0)
(-0.00184728 0.000161289 0)
(-0.00185196 -0.000137352 0)
(-0.00179577 -0.000432852 0)
(-0.00168001 -0.000714868 0)
(-0.0015082 -0.000972196 0)
(-0.00128635 -0.00119119 0)
(-0.00102367 -0.00135187 0)
(-0.00073363 -0.00142065 0)
(-0.000437912 -0.00134151 0)
(-0.000179274 -0.00103625 0)
(-3.33073e-05 -0.000436594 0)
(-4.66037e-05 0.00065198 0)
(-0.000245829 0.00151997 0)
(-0.000594744 0.00195459 0)
(-0.000992632 0.00206591 0)
(-0.00138386 0.00196964 0)
(-0.00174127 0.00174532 0)
(-0.00204783 0.00143854 0)
(-0.00229121 0.00107513 0)
(-0.00246233 0.000672259 0)
(-0.00255475 0.00024431 0)
(-0.00256441 -0.000194651 0)
(-0.00248988 -0.000630103 0)
(-0.0023325 -0.00104678 0)
(-0.00209671 -0.00142803 0)
(-0.00179056 -0.00175351 0)
(-0.00142666 -0.00199364 0)
(-0.0010238 -0.00209895 0)
(-0.000612193 -0.00198691 0)
(-0.000251435 -0.00154104 0)
(-4.70323e-05 -0.000655051 0)
(-6.61976e-05 0.000954849 0)
(-0.00034589 0.00220693 0)
(-0.000833042 0.00282709 0)
(-0.00138744 0.00298302 0)
(-0.00193251 0.00284338 0)
(-0.00243134 0.00252192 0)
(-0.00286075 0.00208298 0)
(-0.00320373 0.00156253 0)
(-0.00344746 0.000984314 0)
(-0.00358242 0.000368325 0)
(-0.00360224 -0.000265669 0)
(-0.00350398 -0.000896927 0)
(-0.00328859 -0.00150326 0)
(-0.00296147 -0.00206014 0)
(-0.00253333 -0.00253747 0)
(-0.00202168 -0.0028917 0)
(-0.00145308 -0.0030507 0)
(-0.000870569 -0.00289457 0)
(-0.000358779 -0.00225286 0)
(-6.7571e-05 -0.000964857 0)
(-9.44248e-05 0.00138335 0)
(-0.000488741 0.00317141 0)
(-0.00117172 0.00404793 0)
(-0.00194746 0.00426505 0)
(-0.00271038 0.00406611 0)
(-0.00341036 0.00361211 0)
(-0.00401595 0.00299259 0)
(-0.00450364 0.00225675 0)
(-0.00485515 0.00143663 0)
(-0.00505631 0.000559309 0)
(-0.00509677 -0.000348035 0)
(-0.00497058 -0.0012563 0)
(-0.00467716 -0.00213345 0)
(-0.00422243 -0.0029434 0)
(-0.00362027 -0.00364142 0)
(-0.00289492 -0.00416309 0)
(-0.00208448 -0.00440308 0)
(-0.00125121 -0.00418777 0)
(-0.000517179 -0.00326976 0)
(-9.79236e-05 -0.00140976 0)
(-0.000134533 0.00199048 0)
(-0.000689978 0.00452752 0)
(-0.0016468 0.00575881 0)
(-0.00273163 0.00606046 0)
(-0.00379938 0.00578153 0)
(-0.00478257 0.00514825 0)
(-0.00563893 0.00428386 0)
(-0.00633622 0.00325436 0)
(-0.0068484 0.00210185 0)
(-0.00715407 0.000861869 0)
(-0.0072363 -0.000429244 0)
(-0.00708305 -0.00173159 0)
(-0.00668952 -0.00299919 0)
(-0.00606054 -0.0041788 0)
(-0.00521291 -0.00520323 0)
(-0.00417975 -0.00597589 0)
(-0.00301607 -0.00634145 0)
(-0.0018136 -0.00604749 0)
(-0.000751185 -0.00473573 0)
(-0.000142635 -0.00205354 0)
(-0.000190782 0.00284837 0)
(-0.000969912 0.00642952 0)
(-0.00230496 0.00815069 0)
(-0.0038162 0.00856976 0)
(-0.00530563 0.00818538 0)
(-0.00668376 0.00731358 0)
(-0.00789487 0.00612218 0)
(-0.00889544 0.0046978 0)
(-0.0096486 0.00309367 0)
(-0.0101221 0.00135442 0)
(-0.0102884 -0.000473396 0)
(-0.0101233 -0.00233736 0)
(-0.00961159 -0.00417206 0)
(-0.00875273 -0.00589891 0)
(-0.00756383 -0.00741563 0)
(-0.00608823 -0.00857433 0)
(-0.00440556 -0.00914146 0)
(-0.00265366 -0.00874591 0)
(-0.00110002 -0.00686752 0)
(-0.000208795 -0.0029911 0)
(-0.000268523 0.00405374 0)
(-0.00135391 0.00908285 0)
(-0.00320427 0.011477 0)
(-0.00529563 0.0120595 0)
(-0.00736063 0.0115406 0)
(-0.00928319 0.0103593 0)
(-0.0109922 0.00874174 0)
(-0.0124307 0.00679835 0)
(-0.0135474 0.00459281 0)
(-0.0142945 0.00217691 0)
(-0.0146282 -0.000394466 0)
(-0.0145014 -0.0030557 0)
(-0.0138747 -0.00571804 0)
(-0.0127318 -0.00826647 0)
(-0.0110808 -0.0105433 0)
(-0.00897235 -0.0123159 0)
(-0.00651981 -0.0132224 0)
(-0.00393498 -0.0127049 0)
(-0.00162986 -0.0100016 0)
(-0.00030793 -0.00436741 0)
(-0.000374162 0.00573338 0)
(-0.00187226 0.0127553 0)
(-0.00441348 0.0160662 0)
(-0.00728067 0.0168755 0)
(-0.0101175 0.0161919 0)
(-0.0127785 0.014623 0)
(-0.0151776 0.0124693 0)
(-0.0172442 0.0098672 0)
(-0.0189105 0.00688579 0)
(-0.020109 0.00357586 0)
(-0.0207698 -6.31536e-06 0)
(-0.0208075 -0.00378361 0)
(-0.0201346 -0.00765167 0)
(-0.0186916 -0.0114487 0)
(-0.0164509 -0.014931 0)
(-0.0134516 -0.0177224 0)
(-0.00984483 -0.0192377 0)
(-0.00596078 -0.0186046 0)
(-0.00246159 -0.0146832 0)
(-0.000459507 -0.0064109 0)
(-0.000515281 0.00804933 0)
(-0.00256014 0.0177868 0)
(-0.00601053 0.022331 0)
(-0.00989304 0.0234502 0)
(-0.0137403 0.0225746 0)
(-0.0173786 0.0205422 0)
(-0.0207141 0.0177493 0)
(-0.0236688 0.0143575 0)
(-0.026163 0.0104302 0)
(-0.0281049 0.00600039 0)
(-0.0293817 0.00110495 0)
(-0.0298628 -0.00419482 0)
(-0.0293818 -0.00980235 0)
(-0.0277661 -0.0155103 0)
(-0.0248825 -0.0209567 0)
(-0.0206917 -0.0255261 0)
(-0.0153501 -0.0282259 0)
(-0.00936152 -0.0276008 0)
(-0.00384809 -0.0218564 0)
(-0.000701175 -0.0095001 0)
(-0.000702295 0.0112059 0)
(-0.00346147 0.0245992 0)
(-0.00808458 0.0307692 0)
(-0.013259 0.0322931 0)
(-0.0183822 0.0311997 0)
(-0.0232635 0.0286443 0)
(-0.02782 0.0251461 0)
(-0.0319856 0.0208903 0)
(-0.0356857 0.0159172 0)
(-0.0388173 0.0102113 0)
(-0.0412361 0.00374276 0)
(-0.042757 -0.00350983 0)
(-0.043076 -0.0115201 0)
(-0.0418004 -0.0201116 0)
(-0.0385425 -0.0288139 0)
(-0.0329871 -0.0366583 0)
(-0.0251191 -0.0418991 0)
(-0.0156083 -0.0418716 0)
(-0.00642559 -0.0334171 0)
(-0.0011355 -0.0143908 0)
(-0.000957824 0.015472 0)
(-0.0046539 0.0337249 0)
(-0.0107653 0.0419661 0)
(-0.0175237 0.0439553 0)
(-0.024171 0.0425908 0)
(-0.03053 0.0394719 0)
(-0.0365682 0.0352784 0)
(-0.0422735 0.0302182 0)
(-0.0476213 0.024288 0)
(-0.0525475 0.01738 0)
(-0.0569284 0.00931808 0)
(-0.060544 -0.000109472 0)
(-0.0629561 -0.0110888 0)
(-0.0634108 -0.0237649 0)
(-0.0609621 -0.0377547 0)
(-0.0545581 -0.0517475 0)
(-0.0434428 -0.0627207 0)
(-0.0281095 -0.0654253 0)
(-0.0118986 -0.0533698 0)
(-0.00208818 -0.0228435 0)
(-0.00134235 0.0211965 0)
(-0.00632281 0.0456929 0)
(-0.0143478 0.0564411 0)
(-0.0229658 0.0589343 0)
(-0.0312491 0.0572352 0)
(-0.0391306 0.0535302 0)
(-0.046708 0.0487303 0)
(-0.0540848 0.043106 0)
(-0.0613648 0.0366288 0)
(-0.0686301 0.0290852 0)
(-0.0758676 0.0200815 0)
(-0.082886 0.009018 0)
(-0.0893155 -0.00490318 0)
(-0.0939929 -0.0225052 0)
(-0.0949136 -0.0442164 0)
(-0.0895865 -0.0689299 0)
(-0.075526 -0.0919953 0)
(-0.0522108 -0.103338 0)
(-0.0242448 -0.088593 0)
(-0.0047412 -0.0383593 0)
(-0.00218217 0.0302268 0)
(-0.00887078 0.0631013 0)
(-0.0189324 0.0755076 0)
(-0.0295293 0.077014 0)
(-0.0394755 0.0740375 0)
(-0.0486854 0.0694629 0)
(-0.0573523 0.0642448 0)
(-0.0657443 0.0585991 0)
(-0.0741893 0.0524612 0)
(-0.0830431 0.0455447 0)
(-0.0926163 0.0372147 0)
(-0.102992 0.0262588 0)
(-0.113615 0.0106934 0)
(-0.12307 -0.0120468 0)
(-0.12888 -0.0444812 0)
(-0.127116 -0.0869672 0)
(-0.113518 -0.133359 0)
(-0.0860612 -0.16639 0)
(-0.0482241 -0.156713 0)
(-0.0125447 -0.0736309 0)
(-0.00575874 0.0354953 0)
(-0.0176713 0.0759284 0)
(-0.0308995 0.0954242 0)
(-0.0420415 0.100484 0)
(-0.0510532 0.0978542 0)
(-0.0585315 0.0920419 0)
(-0.0648486 0.0852854 0)
(-0.0703334 0.078553 0)
(-0.0753983 0.0721424 0)
(-0.080503 0.0658128 0)
(-0.0861191 0.0586115 0)
(-0.0926296 0.0484888 0)
(-0.0999313 0.031853 0)
(-0.107118 0.00335012 0)
(-0.114099 -0.0432701 0)
(-0.117586 -0.109884 0)
(-0.113502 -0.189746 0)
(-0.0985048 -0.261042 0)
(-0.0706508 -0.279701 0)
(-0.0242003 -0.168852 0)
(-0.0209176 0.107005 0)
(-0.0489364 0.141142 0)
(-0.060652 0.125314 0)
(-0.0594431 0.108474 0)
(-0.0523574 0.0949429 0)
(-0.0427045 0.0836379 0)
(-0.031845 0.074301 0)
(-0.020523 0.0667963 0)
(-0.00915361 0.0607764 0)
(0.00202606 0.0556363 0)
(0.012808 0.0503412 0)
(0.0228581 0.0430589 0)
(0.0310396 0.0305946 0)
(0.0338677 0.00771546 0)
(0.0312044 -0.0324822 0)
(0.0236345 -0.0962923 0)
(0.00935933 -0.184201 0)
(-0.0116602 -0.281887 0)
(-0.0335151 -0.34965 0)
(-0.0125475 -0.281428 0)
(0.0787751 0.087918 0)
(0.0906322 0.112724 0)
(0.155378 0.105696 0)
(0.216569 0.0943709 0)
(0.265289 0.0832576 0)
(0.304948 0.072994 0)
(0.338749 0.0637479 0)
(0.36833 0.0555913 0)
(0.394484 0.048502 0)
(0.417643 0.0423629 0)
(0.438028 0.0370092 0)
(0.455258 0.0319887 0)
(0.468752 0.026956 0)
(0.475702 0.0204886 0)
(0.473364 0.0115427 0)
(0.456964 -0.000372313 0)
(0.414707 -0.0183625 0)
(0.346376 -0.0369782 0)
(0.217003 -0.0890172 0)
(0.120599 -0.133278 0)
)
;

boundaryField
{
    movingWall
    {
        type            fixedValue;
        value           uniform (1 0 0);
    }
    fixedWalls
    {
        type            noSlip;
    }
    frontAndBack
    {
        type            empty;
    }
}


// ************************************************************************* //
