/*--------------------------------*- C++ -*----------------------------------*\
  =========                 |
  \\      /  F ield         | OpenFOAM: The Open Source CFD Toolbox
   \\    /   O peration     | Website:  https://openfoam.org
    \\  /    A nd           | Version:  9
     \\/     M anipulation  |
\*---------------------------------------------------------------------------*/
FoamFile
{
    format      ascii;
    class       volScalarField;
    location    "0.5";
    object      p;
}
// * * * * * * * * * * * * * * * * * * * * * * * * * * * * * * * * * * * * * //

dimensions      [ 0 2 -2 0 0 0 0 ];

internalField   nonuniform List<scalar> 
400
(
-8.43099e-10
-0.000151932
-0.00022736
-0.000205321
-7.68734e-05
0.000160673
0.000510034
0.000975498
0.00155887
0.00225223
0.00302989
0.00384286
0.0046136
0.00524951
0.00566386
0.00580893
0.00570443
0.00544193
0.00515469
0.00499281
0.00015297
-4.32937e-06
-4.74988e-05
6.48799e-06
0.000149096
0.000383101
0.000712877
0.00114325
0.00167624
0.00230505
0.0030071
0.00374094
0.00443755
0.00501337
0.00539023
0.00552616
0.00544172
0.00522261
0.00498827
0.00483162
0.0002215
1.89649e-05
-2.47059e-05
3.84727e-05
0.000181709
0.000405233
0.00071439
0.00111659
0.00161809
0.0022178
0.00289968
0.00362593
0.00432828
0.00491649
0.0053
0.00542466
0.00530708
0.00504086
0.00475728
0.00454766
0.000145943
-0.000109757
-0.000167781
-0.000109274
2.34222e-05
0.000228071
0.0005114
0.00088491
0.00136162
0.00194939
0.00264142
0.00340497
0.00417003
0.00482907
0.00526331
0.00538962
0.00521192
0.00483874
0.00443853
0.00413567
-0.000131271
-0.000432247
-0.000508087
-0.000463145
-0.000351552
-0.000176816
6.97891e-05
0.000404554
0.000848692
0.00142194
0.00213105
0.00295309
0.00382252
0.00461012
0.0051546
0.00532168
0.00508432
0.00456314
0.00398392
0.00353338
-0.000653372
-0.000990812
-0.00108755
-0.00106611
-0.000989471
-0.000862006
-0.000673533
-0.000403941
-2.41871e-05
0.000499531
0.00119374
0.00205576
0.00305145
0.00403326
0.00478712
0.00509331
0.00485142
0.00416778
0.00332905
0.0026228
-0.00144907
-0.00181575
-0.00193843
-0.00195401
-0.00193286
-0.00188161
-0.00179171
-0.00164377
-0.0014061
-0.00103326
-0.000471444
0.00031982
0.00139615
0.00261685
0.00373396
0.00439993
0.0043488
0.00358558
0.00241224
0.00125034
-0.00253413
-0.00292433
-0.00308046
-0.00315129
-0.00321507
-0.0032847
-0.00336032
-0.00343411
-0.00348618
-0.00347294
-0.00330212
-0.00282071
-0.0019353
-0.000556905
0.00109415
0.00251993
0.00313976
0.00264679
0.00118293
-0.000770642
-0.00391044
-0.00431948
-0.00451806
-0.0046657
-0.00485117
-0.00510088
-0.00543596
-0.00587946
-0.00645011
-0.00713609
-0.00783215
-0.00826831
-0.00805213
-0.00684011
-0.00460999
-0.00191328
0.000243306
0.000884891
-0.000460181
-0.00362748
-0.00556407
-0.00598767
-0.00623568
-0.00647888
-0.00682167
-0.00731381
-0.00801353
-0.00900053
-0.0103694
-0.0121833
-0.0143526
-0.0164623
-0.0177251
-0.0173522
-0.0148427
-0.0105629
-0.00583294
-0.002618
-0.002833
-0.00734374
-0.00746492
-0.0078985
-0.00819418
-0.00853703
-0.00905456
-0.00983036
-0.0109749
-0.012648
-0.015054
-0.018368
-0.022539
-0.0270102
-0.0305909
-0.0317862
-0.0296321
-0.0240098
-0.0161399
-0.00889108
-0.00642553
-0.01133
-0.00957056
-0.0100085
-0.0103312
-0.010746
-0.0114139
-0.0124603
-0.0140544
-0.0164439
-0.0199509
-0.0248659
-0.0311734
-0.0381824
-0.0443461
-0.047625
-0.0465099
-0.0403526
-0.0298108
-0.0179806
-0.0111884
-0.0139972
-0.0118378
-0.0122718
-0.0125683
-0.0129756
-0.0137053
-0.0149277
-0.0168635
-0.0198317
-0.0242432
-0.0304652
-0.0384869
-0.0475071
-0.0557555
-0.0609362
-0.0611474
-0.0553933
-0.0435548
-0.0279612
-0.01577
-0.0135482
-0.0142462
-0.0146592
-0.0148238
-0.0150747
-0.0157036
-0.0169237
-0.0189876
-0.02225
-0.0271583
-0.0340948
-0.0430229
-0.0530796
-0.0624153
-0.0687043
-0.0699765
-0.0650899
-0.0532796
-0.0354559
-0.0179376
-0.00910148
-0.0168411
-0.0171876
-0.0170294
-0.016892
-0.0171947
-0.018183
-0.0201134
-0.0233363
-0.0282858
-0.0353073
-0.0443264
-0.0544634
-0.0639087
-0.0704184
-0.0721737
-0.0679076
-0.0565115
-0.0375251
-0.0156418
0.000127786
-0.0198231
-0.0199663
-0.0191389
-0.0182935
-0.0180181
-0.0185519
-0.0201214
-0.0230352
-0.0276993
-0.0343817
-0.0429538
-0.0525534
-0.0614818
-0.0676063
-0.069116
-0.0646523
-0.052909
-0.0324048
-0.00645108
0.0176099
-0.0237974
-0.0232734
-0.0211171
-0.0191684
-0.0180979
-0.0180283
-0.0191075
-0.0216061
-0.0258578
-0.0320617
-0.0400364
-0.0489276
-0.0571197
-0.0624889
-0.063027
-0.0569353
-0.0425188
-0.0178842
0.015197
0.0536451
-0.0304619
-0.0275847
-0.0229158
-0.0195305
-0.0175744
-0.0168796
-0.0174812
-0.0195965
-0.0234951
-0.029303
-0.0367755
-0.0450216
-0.0524308
-0.0567159
-0.0554114
-0.0456012
-0.024627
0.0107298
0.0602567
0.126776
-0.0434691
-0.033841
-0.0248726
-0.019234
-0.0162227
-0.0149846
-0.0152855
-0.0172267
-0.0209812
-0.0265707
-0.0336719
-0.0413187
-0.0478683
-0.0507667
-0.0468856
-0.0316912
-7.10156e-05
0.0549977
0.137254
0.25057
-0.0973761
-0.0368009
-0.016568
-0.0116124
-0.00975862
-0.00916082
-0.0100663
-0.0126196
-0.0168613
-0.0227023
-0.0297797
-0.0370671
-0.0429081
-0.044545
-0.038685
-0.019659
0.0214219
0.0989583
0.224426
0.402321
)
;

boundaryField
{
    movingWall
    {
        type            zeroGradient;
    }
    fixedWalls
    {
        type            zeroGradient;
    }
    frontAndBack
    {
        type            empty;
    }
}


// ************************************************************************* //
