/*--------------------------------*- C++ -*----------------------------------*\
  =========                 |
  \\      /  F ield         | OpenFOAM: The Open Source CFD Toolbox
   \\    /   O peration     | Website:  https://openfoam.org
    \\  /    A nd           | Version:  9
     \\/     M anipulation  |
\*---------------------------------------------------------------------------*/
FoamFile
{
    format      ascii;
    class       surfaceScalarField;
    location    "0.5";
    object      phi;
}
// * * * * * * * * * * * * * * * * * * * * * * * * * * * * * * * * * * * * * //

dimensions      [ 0 3 -1 0 0 0 0 ];

internalField   nonuniform List<scalar> 
760
(
-8.13363e-09
8.1339e-09
-6.1456e-08
5.33223e-08
-1.46353e-07
8.48974e-08
-2.46364e-07
1.0001e-07
-3.51862e-07
1.05498e-07
-4.57343e-07
1.0548e-07
-5.58389e-07
1.01046e-07
-6.49561e-07
9.11718e-08
-7.23256e-07
7.36952e-08
-7.69669e-07
4.64135e-08
-7.78103e-07
8.43325e-09
-7.38966e-07
-3.91371e-08
-6.48702e-07
-9.02647e-08
-5.13278e-07
-1.35424e-07
-3.50836e-07
-1.62442e-07
-1.89892e-07
-1.60944e-07
-6.19885e-08
-1.27904e-07
9.8268e-09
-7.18154e-08
2.31221e-08
-1.32952e-08
2.31222e-08
-5.82745e-08
6.64083e-08
-2.07604e-07
2.02652e-07
-4.14381e-07
2.91675e-07
-6.5159e-07
3.37219e-07
-9.00205e-07
3.54112e-07
-1.1465e-06
3.51779e-07
-1.37825e-06
3.32795e-07
-1.58161e-06
2.9453e-07
-1.73956e-06
2.31643e-07
-1.83225e-06
1.39105e-07
-1.83995e-06
1.61268e-08
-1.74647e-06
-1.32619e-07
-1.54738e-06
-2.89353e-07
-1.25617e-06
-4.26635e-07
-9.08119e-07
-5.10489e-07
-5.57344e-07
-5.11719e-07
-2.63901e-07
-4.21347e-07
-7.33528e-08
-2.62363e-07
1.88675e-09
-8.85344e-08
2.50088e-08
-1.03924e-07
1.70332e-07
-3.33615e-07
4.32343e-07
-6.36027e-07
5.94086e-07
-9.75682e-07
6.76873e-07
-1.32822e-06
7.06651e-07
-1.6753e-06
6.98863e-07
-2.00003e-06
6.57525e-07
-2.28355e-06
5.78041e-07
-2.50335e-06
4.51451e-07
-2.63381e-06
2.6956e-07
-2.64907e-06
3.13873e-08
-2.52763e-06
-2.54061e-07
-2.26124e-06
-5.55744e-07
-1.86386e-06
-8.24007e-07
-1.37879e-06
-9.95562e-07
-8.77707e-07
-1.01281e-06
-4.4551e-07
-8.53544e-07
-1.50936e-07
-5.56937e-07
-1.52588e-08
-2.24211e-07
9.74961e-09
-1.38501e-07
3.08833e-07
-4.32936e-07
7.26778e-07
-8.11875e-07
9.73025e-07
-1.23213e-06
1.09713e-06
-1.66609e-06
1.14062e-06
-2.0937e-06
1.12647e-06
-2.49658e-06
1.0604e-06
-2.85409e-06
9.35551e-07
-3.1411e-06
7.38468e-07
-3.3277e-06
4.56158e-07
-3.38115e-06
8.48303e-08
-3.27018e-06
-3.65026e-07
-2.97421e-06
-8.51717e-07
-2.49768e-06
-1.30053e-06
-1.88389e-06
-1.60935e-06
-1.22129e-06
-1.67541e-06
-6.29021e-07
-1.44581e-06
-2.14915e-07
-9.71044e-07
-2.16625e-08
-4.17465e-07
-1.19132e-08
-1.64226e-07
4.73059e-07
-5.09296e-07
1.07185e-06
-9.49375e-07
1.4131e-06
-1.43532e-06
1.58307e-06
-1.93821e-06
1.6435e-06
-2.43884e-06
1.62711e-06
-2.92054e-06
1.5421e-06
-3.36414e-06
1.37915e-06
-3.74454e-06
1.11886e-06
-4.02834e-06
7.3996e-07
-4.17335e-06
2.29839e-07
-4.1319e-06
-4.06475e-07
-3.85809e-06
-1.12553e-06
-3.33218e-06
-1.82644e-06
-2.58488e-06
-2.35666e-06
-1.71813e-06
-2.54215e-06
-8.98729e-07
-2.26521e-06
-3.03866e-07
-1.56591e-06
-2.49732e-08
-6.96358e-07
-3.68865e-08
-1.82894e-07
6.55954e-07
-5.66499e-07
1.45545e-06
-1.05506e-06
1.90167e-06
-1.59585e-06
2.12386e-06
-2.16079e-06
2.20844e-06
-2.73424e-06
2.20056e-06
-3.30457e-06
2.11244e-06
-3.85784e-06
1.93242e-06
-4.37221e-06
1.63323e-06
-4.8121e-06
1.17985e-06
-5.12288e-06
5.40617e-07
-5.23436e-06
-2.94992e-07
-5.05831e-06
-1.30158e-06
-4.53333e-06
-2.35142e-06
-3.65797e-06
-3.23202e-06
-2.53355e-06
-3.66658e-06
-1.37963e-06
-3.41913e-06
-4.82787e-07
-2.46275e-06
-4.21502e-08
-1.13699e-06
-7.90366e-08
-1.95375e-07
8.51329e-07
-6.06658e-07
1.86674e-06
-1.13231e-06
2.42732e-06
-1.71838e-06
2.70993e-06
-2.33974e-06
2.82981e-06
-2.98708e-06
2.84789e-06
-3.65734e-06
2.78271e-06
-4.34592e-06
2.62099e-06
-5.0381e-06
2.3254e-06
-5.69828e-06
1.84004e-06
-6.25677e-06
1.0991e-06
-6.61718e-06
6.5417e-08
-6.63367e-06
-1.28509e-06
-6.19067e-06
-2.79441e-06
-5.23084e-06
-4.19185e-06
-3.82426e-06
-5.07316e-06
-2.22031e-06
-5.02308e-06
-8.42052e-07
-3.841e-06
-9.65868e-08
-1.88246e-06
-1.75623e-07
-2.01832e-07
1.05316e-06
-6.3012e-07
2.29502e-06
-1.18097e-06
2.97817e-06
-1.80103e-06
3.32999e-06
-2.46976e-06
3.49854e-06
-3.18631e-06
3.56444e-06
-3.95922e-06
3.55562e-06
-4.79671e-06
3.45848e-06
-5.69433e-06
3.22303e-06
-6.61848e-06
2.76419e-06
-7.48915e-06
1.96977e-06
-8.1585e-06
7.3477e-07
-8.46233e-06
-9.81267e-07
-8.20756e-06
-3.04918e-06
-7.27002e-06
-5.12939e-06
-5.64564e-06
-6.69755e-06
-3.54542e-06
-7.1233e-06
-1.49527e-06
-5.89115e-06
-2.23528e-07
-3.15421e-06
-3.99152e-07
-2.02123e-07
1.25528e-06
-6.36233e-07
2.72913e-06
-1.19845e-06
3.54039e-06
-1.83671e-06
3.96824e-06
-2.53548e-06
4.19731e-06
-3.303e-06
4.33195e-06
-4.16013e-06
4.41276e-06
-5.12852e-06
4.42687e-06
-6.21425e-06
4.30875e-06
-7.38587e-06
3.93581e-06
-8.55215e-06
3.13605e-06
-9.55039e-06
1.73301e-06
-1.01735e-05
-3.58164e-07
-1.02078e-05
-3.01491e-06
-9.46354e-06
-5.87361e-06
-7.82367e-06
-8.33742e-06
-5.35747e-06
-9.5895e-06
-2.55538e-06
-8.69324e-06
-4.84305e-07
-5.22528e-06
-8.83457e-07
-1.96517e-07
1.4518e-06
-6.25045e-07
3.15766e-06
-1.18235e-06
4.09769e-06
-1.81674e-06
4.60264e-06
-2.51633e-06
4.8969e-06
-3.29645e-06
5.11207e-06
-4.18738e-06
5.30369e-06
-5.22036e-06
5.45986e-06
-6.40831e-06
5.4967e-06
-7.72157e-06
5.24907e-06
-9.06792e-06
4.48239e-06
-1.02925e-05
2.95762e-06
-1.11884e-05
5.37685e-07
-1.1566e-05
-2.63731e-06
-1.1205e-05
-6.23462e-06
-9.871e-06
-9.67138e-06
-7.40472e-06
-1.20558e-05
-4.04682e-06
-1.20511e-05
-9.77855e-07
-8.29425e-06
-1.86131e-06
-1.86751e-07
1.63855e-06
-5.99859e-07
3.57077e-06
-1.13461e-06
4.63244e-06
-1.737e-06
5.20503e-06
-2.39559e-06
5.55549e-06
-3.12809e-06
5.84457e-06
-3.9676e-06
6.1432e-06
-4.94733e-06
6.4396e-06
-6.08152e-06
6.63089e-06
-7.34472e-06
6.51227e-06
-8.66018e-06
5.79785e-06
-9.909e-06
4.20644e-06
-1.09559e-05
1.5846e-06
-1.16377e-05
-1.95557e-06
-1.17844e-05
-6.08783e-06
-1.10817e-05
-1.03741e-05
-9.13199e-06
-1.40055e-05
-5.74917e-06
-1.54339e-05
-1.78586e-06
-1.22576e-05
-3.64717e-06
-1.77395e-07
1.81595e-06
-5.70442e-07
3.96382e-06
-1.06666e-06
5.12866e-06
-1.60579e-06
5.74415e-06
-2.17311e-06
6.12281e-06
-2.7832e-06
6.45465e-06
-3.4643e-06
6.8243e-06
-4.24404e-06
7.21933e-06
-5.13507e-06
7.52192e-06
-6.12347e-06
7.50068e-06
-7.16749e-06
6.84186e-06
-8.21265e-06
5.2516e-06
-9.21699e-06
2.58894e-06
-1.00952e-05
-1.07737e-06
-1.07467e-05
-5.43634e-06
-1.08567e-05
-1.02641e-05
-9.86929e-06
-1.49929e-05
-7.14386e-06
-1.81594e-05
-2.82707e-06
-1.65743e-05
-6.47425e-06
-1.77647e-07
1.9936e-06
-5.56643e-07
4.34281e-06
-1.00447e-06
5.57649e-06
-1.45094e-06
6.19062e-06
-1.87684e-06
6.54871e-06
-2.29067e-06
6.86848e-06
-2.71139e-06
7.24502e-06
-3.1579e-06
7.66584e-06
-3.64341e-06
8.00743e-06
-4.17547e-06
8.03274e-06
-4.76316e-06
7.42955e-06
-5.42804e-06
5.91648e-06
-6.21094e-06
3.37184e-06
-7.13951e-06
-1.48807e-07
-8.1634e-06
-4.41244e-06
-9.04919e-06
-9.37834e-06
-9.20382e-06
-1.48382e-05
-7.66128e-06
-1.97019e-05
-3.78509e-06
-2.04505e-05
-1.02593e-05
-2.04054e-07
2.19765e-06
-5.92415e-07
4.73118e-06
-9.91913e-07
5.97599e-06
-1.32244e-06
6.52115e-06
-1.56541e-06
6.79168e-06
-1.72626e-06
7.02933e-06
-1.81612e-06
7.33489e-06
-1.84777e-06
7.69749e-06
-1.84042e-06
8.00009e-06
-1.83004e-06
8.02235e-06
-1.88232e-06
7.48183e-06
-2.0884e-06
6.12256e-06
-2.55199e-06
3.83544e-06
-3.39094e-06
6.90139e-07
-4.59831e-06
-3.20507e-06
-6.04779e-06
-7.92887e-06
-7.22856e-06
-1.36575e-05
-7.06504e-06
-1.98654e-05
-4.30133e-06
-2.32142e-05
-1.45607e-05
-2.85736e-07
2.48339e-06
-7.31515e-07
5.17696e-06
-1.09192e-06
6.33639e-06
-1.28799e-06
6.71722e-06
-1.31773e-06
6.82142e-06
-1.19302e-06
6.90463e-06
-9.23406e-07
7.06527e-06
-5.20777e-07
7.29486e-06
-1.54883e-08
7.4948e-06
5.24723e-07
7.48214e-06
9.92229e-07
7.01432e-06
1.23814e-06
5.87666e-06
1.10351e-06
3.97006e-06
4.5633e-07
1.33732e-06
-7.47511e-07
-2.00123e-06
-2.46291e-06
-6.21347e-06
-4.36727e-06
-1.17531e-05
-5.48285e-06
-1.87498e-05
-4.16933e-06
-2.45278e-05
-1.873e-05
-4.76831e-07
2.96022e-06
-1.05841e-06
5.75853e-06
-1.38509e-06
6.66307e-06
-1.42064e-06
6.75277e-06
-1.20996e-06
6.61073e-06
-7.84402e-07
6.47907e-06
-1.58668e-07
6.43954e-06
6.50632e-07
6.48556e-06
1.60206e-06
6.54337e-06
2.61424e-06
6.46996e-06
3.54415e-06
6.08441e-06
4.20684e-06
5.21397e-06
4.41535e-06
3.76155e-06
4.03649e-06
1.71618e-06
2.98598e-06
-9.50723e-07
1.2806e-06
-4.50809e-06
-9.53911e-07
-9.5186e-06
-3.09868e-06
-1.66051e-05
-3.3457e-06
-2.42807e-05
-2.20757e-05
-8.93334e-07
3.85355e-06
-1.70924e-06
6.57444e-06
-1.95461e-06
6.90844e-06
-1.74911e-06
6.54727e-06
-1.22943e-06
6.09106e-06
-4.62108e-07
5.71175e-06
5.25359e-07
5.45207e-06
1.70855e-06
5.30237e-06
3.04576e-06
5.20616e-06
4.44813e-06
5.06758e-06
5.77123e-06
4.76132e-06
6.82786e-06
4.15733e-06
7.42429e-06
3.16513e-06
7.4181e-06
1.72236e-06
6.7109e-06
-2.43526e-07
5.26114e-06
-3.05833e-06
2.99345e-06
-7.2509e-06
1.65229e-07
-1.37769e-05
-1.71752e-06
-2.2398e-05
-2.37932e-05
-1.84673e-06
5.70028e-06
-2.83889e-06
7.5666e-06
-2.6263e-06
6.69586e-06
-1.78358e-06
5.70455e-06
-6.38159e-07
4.94564e-06
6.92001e-07
4.38159e-06
2.17196e-06
3.97211e-06
3.78475e-06
3.68958e-06
5.49831e-06
3.4926e-06
7.24981e-06
3.31608e-06
8.92791e-06
3.08322e-06
1.03795e-05
2.70575e-06
1.14272e-05
2.11743e-06
1.19074e-05
1.24215e-06
1.16591e-05
4.72356e-09
1.0553e-05
-1.95223e-06
8.32874e-06
-5.02661e-06
4.81194e-06
-1.02601e-05
1.17447e-06
-1.87605e-05
-2.26187e-05
-3.8514e-06
9.55168e-06
-2.70711e-06
6.42231e-06
-1.00387e-07
4.08913e-06
2.41849e-06
3.18567e-06
4.74848e-06
2.61565e-06
6.95202e-06
2.17805e-06
9.06633e-06
1.85781e-06
1.11193e-05
1.63658e-06
1.31287e-05
1.48319e-06
1.50855e-05
1.35929e-06
1.69393e-05
1.22944e-06
1.85938e-05
1.05131e-06
1.99174e-05
7.93835e-07
2.07288e-05
4.30681e-07
2.07859e-05
-5.23966e-08
1.98351e-05
-1.00136e-06
1.73726e-05
-2.56414e-06
1.27196e-05
-5.60701e-06
5.69708e-06
-1.1738e-05
-1.69217e-05
9.55168e-06
1.5974e-05
2.00631e-05
2.32488e-05
2.58644e-05
2.80425e-05
2.99003e-05
3.15369e-05
3.30201e-05
3.43794e-05
3.56088e-05
3.66601e-05
3.74539e-05
3.78846e-05
3.78322e-05
3.68309e-05
3.42667e-05
2.86597e-05
1.69217e-05
)
;

boundaryField
{
    movingWall
    {
        type            calculated;
        value           uniform 0;
    }
    fixedWalls
    {
        type            calculated;
        value           uniform 0;
    }
    frontAndBack
    {
        type            empty;
        value           nonuniform 0 ( );
    }
}


// ************************************************************************* //
