/*--------------------------------*- C++ -*----------------------------------*\
  =========                 |
  \\      /  F ield         | OpenFOAM: The Open Source CFD Toolbox
   \\    /   O peration     | Website:  https://openfoam.org
    \\  /    A nd           | Version:  9
     \\/     M anipulation  |
\*---------------------------------------------------------------------------*/
FoamFile
{
    format      ascii;
    class       volVectorField;
    location    "0.5";
    object      U;
}
// * * * * * * * * * * * * * * * * * * * * * * * * * * * * * * * * * * * * * //

dimensions      [ 0 1 -1 0 0 0 0 ];

internalField   nonuniform List<vector> 
400
(
(3.99976e-05 -5.18876e-05 0)
(-0.00050708 0.000301683 0)
(-0.00198144 0.000560073 0)
(-0.00388589 0.000677881 0)
(-0.00597244 0.00072026 0)
(-0.00810547 0.000727585 0)
(-0.0101937 0.000710756 0)
(-0.0121437 0.000660881 0)
(-0.0138267 0.000558006 0)
(-0.0150663 0.000380228 0)
(-0.0156502 0.000114225 0)
(-0.015364 -0.000233806 0)
(-0.0140625 -0.000623075 0)
(-0.01176 -0.00097393 0)
(-0.00869798 -0.00118399 0)
(-0.00535724 -0.00116421 0)
(-0.00236123 -0.000887319 0)
(-0.000274578 -0.000424937 0)
(0.000562858 4.47721e-05 0)
(0.00032166 0.000290645 0)
(-0.000360109 0.000522656 0)
(-0.00228024 0.00213517 0)
(-0.0059943 0.00323452 0)
(-0.010566 0.00378688 0)
(-0.0155027 0.003995 0)
(-0.0205129 0.00398996 0)
(-0.0253551 0.00380788 0)
(-0.0297776 0.00341445 0)
(-0.0334738 0.00273749 0)
(-0.0360678 0.00170526 0)
(-0.0371473 0.000290711 0)
(-0.0363292 -0.00144055 0)
(-0.0333805 -0.00328934 0)
(-0.0283728 -0.00491252 0)
(-0.0217921 -0.00588802 0)
(-0.0145596 -0.00585817 0)
(-0.0078767 -0.00472009 0)
(-0.00287617 -0.00276594 0)
(-0.000206117 -0.000681944 0)
(0.000253507 0.000587308 0)
(-0.000735816 0.00221342 0)
(-0.00385951 0.00601875 0)
(-0.00939401 0.00844644 0)
(-0.0159995 0.00969941 0)
(-0.0230284 0.0101625 0)
(-0.0301097 0.0100767 0)
(-0.036915 0.00950672 0)
(-0.0430964 0.00838244 0)
(-0.0482422 0.00656453 0)
(-0.0518623 0.0039248 0)
(-0.053422 0.00043814 0)
(-0.0524202 -0.00371932 0)
(-0.0485244 -0.00809601 0)
(-0.0417613 -0.0119366 0)
(-0.0326894 -0.0143112 0)
(-0.0224813 -0.014412 0)
(-0.0127838 -0.0119767 0)
(-0.00525855 -0.00762126 0)
(-0.000931239 -0.00282149 0)
(0.000181756 0.000413007 0)
(-0.0010107 0.00467974 0)
(-0.00508499 0.0113473 0)
(-0.0120911 0.0153709 0)
(-0.0203089 0.0174203 0)
(-0.0289728 0.0181468 0)
(-0.037683 0.0179255 0)
(-0.0460848 0.0168514 0)
(-0.0538002 0.0148121 0)
(-0.0603756 0.0115898 0)
(-0.0652548 0.00698419 0)
(-0.0677943 0.000951311 0)
(-0.0673272 -0.00624533 0)
(-0.0632896 -0.0139048 0)
(-0.0554652 -0.0207903 0)
(-0.0442859 -0.0253005 0)
(-0.0310645 -0.0259302 0)
(-0.0179702 -0.022038 0)
(-0.00747906 -0.014558 0)
(-0.0013272 -0.00605499 0)
(0.000263078 2.64224e-05 0)
(-0.00120688 0.00773424 0)
(-0.00600882 0.0177976 0)
(-0.0141821 0.0236233 0)
(-0.0236973 0.0265397 0)
(-0.0337099 0.027558 0)
(-0.0438342 0.0272239 0)
(-0.0537482 0.0256729 0)
(-0.0631101 0.0227447 0)
(-0.0714886 0.0181218 0)
(-0.0783023 0.0114835 0)
(-0.0827889 0.00268678 0)
(-0.0840272 -0.00802164 0)
(-0.08102 -0.0197868 0)
(-0.0730151 -0.030863 0)
(-0.0600249 -0.0387679 0)
(-0.0433086 -0.040875 0)
(-0.0256217 -0.0356703 0)
(-0.0107172 -0.0241997 0)
(-0.00174887 -0.0105287 0)
(0.000473037 -0.000383674 0)
(-0.00134288 0.0112284 0)
(-0.00668477 0.0251292 0)
(-0.0157636 0.0329573 0)
(-0.026328 0.0368457 0)
(-0.0374995 0.038256 0)
(-0.0489512 0.0379538 0)
(-0.0604547 0.0361368 0)
(-0.0717794 0.0325964 0)
(-0.0825921 0.0268818 0)
(-0.0923393 0.0184659 0)
(-0.100136 0.00694969 0)
(-0.104712 -0.00764691 0)
(-0.104399 -0.0244997 0)
(-0.0975505 -0.0414143 0)
(-0.0833852 -0.0548004 0)
(-0.0627438 -0.0603092 0)
(-0.0387833 -0.0546628 0)
(-0.0169051 -0.0383168 0)
(-0.00288554 -0.017207 0)
(0.000724136 -0.000908533 0)
(-0.00142689 0.0150321 0)
(-0.00714154 0.0331195 0)
(-0.0168889 0.0431444 0)
(-0.02828 0.0481521 0)
(-0.0404456 0.0501402 0)
(-0.0531621 0.0501542 0)
(-0.0663579 0.0484918 0)
(-0.0799935 0.0449047 0)
(-0.0939222 0.038767 0)
(-0.107691 0.0292185 0)
(-0.120302 0.0153553 0)
(-0.130046 -0.00335855 0)
(-0.134388 -0.026305 0)
(-0.13051 -0.0511463 0)
(-0.116495 -0.0729932 0)
(-0.0922658 -0.0851551 0)
(-0.060726 -0.0813746 0)
(-0.028636 -0.0599071 0)
(-0.00575632 -0.0281743 0)
(0.00090364 -0.0020146 0)
(-0.00146034 0.0190244 0)
(-0.00738518 0.0415565 0)
(-0.0175635 0.0539576 0)
(-0.0295385 0.0602606 0)
(-0.0424834 0.0630805 0)
(-0.056312 0.0638158 0)
(-0.0711606 0.0629184 0)
(-0.0872494 0.0601206 0)
(-0.104697 0.0545745 0)
(-0.123228 0.0449301 0)
(-0.141754 0.0294939 0)
(-0.157953 0.00677848 0)
(-0.168514 -0.0233293 0)
(-0.169569 -0.0583615 0)
(-0.157848 -0.0921632 0)
(-0.131942 -0.115436 0)
(-0.0933831 -0.117877 0)
(-0.0487394 -0.0929456 0)
(-0.0119138 -0.0469535 0)
(0.000804548 -0.00474925 0)
(-0.00144249 0.0230838 0)
(-0.00741136 0.0502235 0)
(-0.0177633 0.065145 0)
(-0.03002 0.0729107 0)
(-0.0434074 0.0768316 0)
(-0.0579837 0.0787401 0)
(-0.0741078 0.0793083 0)
(-0.0922771 0.0782724 0)
(-0.112889 0.0745011 0)
(-0.135849 0.065968 0)
(-0.160014 0.049886 0)
(-0.182704 0.0234488 0)
(-0.199888 -0.0145443 0)
(-0.207066 -0.0614908 0)
(-0.200263 -0.110265 0)
(-0.176526 -0.149404 0)
(-0.134779 -0.164362 0)
(-0.0787893 -0.141077 0)
(-0.0237771 -0.0786739 0)
(-0.000138207 -0.0111564 0)
(-0.00137793 0.0270873 0)
(-0.00722952 0.0588928 0)
(-0.0174779 0.0764066 0)
(-0.0296344 0.0857305 0)
(-0.0429556 0.0909424 0)
(-0.057609 0.094387 0)
(-0.0741274 0.097015 0)
(-0.0932196 0.0985756 0)
(-0.115486 0.0975775 0)
(-0.140967 0.0911407 0)
(-0.168541 0.075169 0)
(-0.195466 0.0454568 0)
(-0.217623 -0.000104757 0)
(-0.230801 -0.0591844 0)
(-0.231205 -0.124089 0)
(-0.214668 -0.182545 0)
(-0.176794 -0.216974 0)
(-0.116202 -0.204641 0)
(-0.0442458 -0.129411 0)
(-0.00328148 -0.0249565 0)
(-0.00128708 0.030928 0)
(-0.00689824 0.0673432 0)
(-0.0167764 0.0873976 0)
(-0.0283856 0.0982164 0)
(-0.0409572 0.104704 0)
(-0.0546896 0.109777 0)
(-0.0701762 0.114691 0)
(-0.0881882 0.1192 0)
(-0.109386 0.121399 0)
(-0.133888 0.117513 0)
(-0.160749 0.102215 0)
(-0.187647 0.0702011 0)
(-0.211338 0.0187852 0)
(-0.228713 -0.0500228 0)
(-0.237122 -0.129081 0)
(-0.232082 -0.207136 0)
(-0.206159 -0.266285 0)
(-0.152101 -0.276935 0)
(-0.0735204 -0.202255 0)
(-0.0106863 -0.0516441 0)
(-0.0012204 0.0345572 0)
(-0.0065702 0.0754139 0)
(-0.015889 0.0977679 0)
(-0.0264958 0.109762 0)
(-0.037526 0.11718 0)
(-0.0491201 0.123531 0)
(-0.0617964 0.130369 0)
(-0.0762226 0.137432 0)
(-0.0929889 0.142444 0)
(-0.112311 0.140918 0)
(-0.133661 0.126702 0)
(-0.155638 0.0939455 0)
(-0.176512 0.0398411 0)
(-0.194992 -0.0338231 0)
(-0.210289 -0.121598 0)
(-0.218414 -0.21503 0)
(-0.210299 -0.29958 0)
(-0.173797 -0.34361 0)
(-0.104306 -0.290296 0)
(-0.0234354 -0.0968239 0)
(-0.001279 0.0380577 0)
(-0.00654664 0.0830958 0)
(-0.0152898 0.10724 0)
(-0.0245186 0.11974 0)
(-0.0332303 0.127335 0)
(-0.0414733 0.134107 0)
(-0.0496131 0.141863 0)
(-0.0581206 0.150332 0)
(-0.0674798 0.15703 0)
(-0.0780973 0.157141 0)
(-0.0901126 0.144271 0)
(-0.10336 0.112594 0)
(-0.11784 0.0595278 0)
(-0.134214 -0.013312 0)
(-0.153553 -0.1023 0)
(-0.173274 -0.203087 0)
(-0.184379 -0.307767 0)
(-0.171687 -0.388964 0)
(-0.123897 -0.376722 0)
(-0.0385117 -0.163476 0)
(-0.00165063 0.0417607 0)
(-0.00735036 0.0906582 0)
(-0.0157727 0.115702 0)
(-0.0233956 0.127614 0)
(-0.0291375 0.134225 0)
(-0.0330509 0.140143 0)
(-0.0353912 0.147348 0)
(-0.0364597 0.155598 0)
(-0.0366909 0.162435 0)
(-0.0367864 0.163195 0)
(-0.0376902 0.151828 0)
(-0.0405326 0.122897 0)
(-0.0468433 0.074096 0)
(-0.0589185 0.00686598 0)
(-0.0790315 -0.076298 0)
(-0.106422 -0.175536 0)
(-0.133668 -0.290903 0)
(-0.144798 -0.404926 0)
(-0.124345 -0.445275 0)
(-0.0484762 -0.248031 0)
(-0.00268481 0.0464486 0)
(-0.00984963 0.0988004 0)
(-0.0185257 0.123259 0)
(-0.0244274 0.132987 0)
(-0.0266721 0.13714 0)
(-0.0256003 0.140729 0)
(-0.0215155 0.145789 0)
(-0.0146597 0.152136 0)
(-0.00550131 0.157595 0)
(0.0049496 0.158074 0)
(0.0149741 0.148264 0)
(0.0222456 0.123385 0)
(0.0240357 0.0813012 0)
(0.0173838 0.0230183 0)
(-0.000703903 -0.0498512 0)
(-0.0309679 -0.140513 0)
(-0.0682989 -0.256465 0)
(-0.0986049 -0.393366 0)
(-0.106835 -0.488056 0)
(-0.0477306 -0.339509 0)
(-0.00507198 0.0537746 0)
(-0.0155225 0.108801 0)
(-0.0252482 0.130135 0)
(-0.0291473 0.135493 0)
(-0.0272735 0.135562 0)
(-0.0207394 0.135427 0)
(-0.0100953 0.136964 0)
(0.00437945 0.140052 0)
(0.0221366 0.142967 0)
(0.0418754 0.142452 0)
(0.0613694 0.134245 0)
(0.0775614 0.114412 0)
(0.0869444 0.0809046 0)
(0.0862377 0.0338927 0)
(0.0724938 -0.0265494 0)
(0.0445477 -0.105047 0)
(0.00438034 -0.213574 0)
(-0.0380579 -0.36082 0)
(-0.0752444 -0.503313 0)
(-0.0356577 -0.424392 0)
(-0.0103284 0.0670357 0)
(-0.0271027 0.122418 0)
(-0.0383099 0.136288 0)
(-0.0387226 0.134621 0)
(-0.0310524 0.129093 0)
(-0.0178758 0.124186 0)
(-0.000154918 0.121311 0)
(0.0217083 0.12036 0)
(0.0470753 0.120061 0)
(0.0745901 0.118064 0)
(0.101976 0.111314 0)
(0.126084 0.0967781 0)
(0.14317 0.072502 0)
(0.149961 0.037613 0)
(0.143218 -0.00917527 0)
(0.121989 -0.0735376 0)
(0.0851397 -0.168308 0)
(0.0376921 -0.311734 0)
(-0.0287146 -0.486954 0)
(-0.010441 -0.48431 0)
(-0.0222513 0.0920788 0)
(-0.0501168 0.142227 0)
(-0.0585103 0.140607 0)
(-0.0463367 0.126916 0)
(-0.0253553 0.11404 0)
(-0.000130553 0.103969 0)
(0.0281869 0.096788 0)
(0.0592182 0.0920773 0)
(0.0924997 0.0888479 0)
(0.127136 0.0855155 0)
(0.161392 0.0801198 0)
(0.19289 0.0705051 0)
(0.21809 0.055072 0)
(0.234298 0.0323178 0)
(0.236605 0.000319189 0)
(0.22463 -0.0467862 0)
(0.19178 -0.120014 0)
(0.141952 -0.242012 0)
(0.0458982 -0.424073 0)
(0.0385418 -0.486565 0)
(-0.0650358 0.171298 0)
(-0.0759276 0.151525 0)
(-0.0280545 0.111221 0)
(0.0232594 0.0905784 0)
(0.0719444 0.0766593 0)
(0.117538 0.0659041 0)
(0.160732 0.0578793 0)
(0.202284 0.0522406 0)
(0.242627 0.0483053 0)
(0.282065 0.045085 0)
(0.319719 0.0415534 0)
(0.354915 0.0364224 0)
(0.384117 0.0287255 0)
(0.406696 0.0171713 0)
(0.413904 0.000357315 0)
(0.408272 -0.0249309 0)
(0.372636 -0.0666427 0)
(0.315636 -0.143892 0)
(0.186424 -0.291497 0)
(0.139179 -0.387237 0)
(0.21292 0.129219 0)
(0.254402 0.106251 0)
(0.351925 0.0739507 0)
(0.4334 0.0540698 0)
(0.493785 0.0414637 0)
(0.541153 0.032538 0)
(0.580767 0.0260031 0)
(0.615334 0.0212585 0)
(0.646066 0.0178438 0)
(0.674278 0.0152879 0)
(0.699447 0.0131797 0)
(0.722481 0.0110968 0)
(0.739787 0.0085736 0)
(0.753366 0.00534076 0)
(0.75353 0.00049375 0)
(0.746651 -0.00587099 0)
(0.70581 -0.0173511 0)
(0.648324 -0.0371338 0)
(0.491571 -0.0829281 0)
(0.365212 -0.139333 0)
)
;

boundaryField
{
    movingWall
    {
        type            fixedValue;
        value           uniform ( 1 0 0 );
    }
    fixedWalls
    {
        type            noSlip;
    }
    frontAndBack
    {
        type            empty;
    }
}


// ************************************************************************* //
