/*--------------------------------*- C++ -*----------------------------------*\
  =========                 |
  \\      /  F ield         | OpenFOAM: The Open Source CFD Toolbox
   \\    /   O peration     | Website:  https://openfoam.org
    \\  /    A nd           | Version:  7
     \\/     M anipulation  |
\*---------------------------------------------------------------------------*/
FoamFile
{
    version     2.0;
    format      ascii;
    class       volScalarField;
    location    "0.2";
    object      p;
}
// * * * * * * * * * * * * * * * * * * * * * * * * * * * * * * * * * * * * * //

dimensions      [0 2 -2 0 0 0 0];

internalField   nonuniform List<scalar> 
400
(
-1.45785e-09
-4.8859e-06
-1.19349e-05
-1.91937e-05
-2.51206e-05
-2.87641e-05
-2.98007e-05
-2.84029e-05
-2.50906e-05
-2.06062e-05
-1.58108e-05
-1.15969e-05
-8.80319e-06
-8.12666e-06
-1.00206e-05
-1.45738e-05
-2.13752e-05
-2.93968e-05
-3.69966e-05
-4.21426e-05
2.56348e-05
1.60968e-05
7.35225e-06
-1.90114e-07
-6.61081e-06
-1.16419e-05
-1.51394e-05
-1.72188e-05
-1.81957e-05
-1.85187e-05
-1.87121e-05
-1.9318e-05
-2.08361e-05
-2.36651e-05
-2.8047e-05
-3.40043e-05
-4.12906e-05
-4.95271e-05
-5.86312e-05
-6.80709e-05
4.70038e-05
3.12271e-05
1.79831e-05
7.4957e-06
-1.06803e-06
-7.73709e-06
-1.25096e-05
-1.56277e-05
-1.75163e-05
-1.87118e-05
-1.98121e-05
-2.1425e-05
-2.41115e-05
-2.83334e-05
-3.44031e-05
-4.24182e-05
-5.22126e-05
-6.36344e-05
-7.72828e-05
-9.28461e-05
6.4412e-05
4.11373e-05
2.22232e-05
7.95313e-06
-3.08894e-06
-1.11321e-05
-1.63211e-05
-1.91095e-05
-2.01695e-05
-2.02959e-05
-2.03472e-05
-2.11856e-05
-2.36091e-05
-2.82882e-05
-3.57039e-05
-4.60583e-05
-5.92042e-05
-7.50411e-05
-9.45716e-05
-0.000117354
7.49477e-05
4.10659e-05
1.44152e-05
-4.55604e-06
-1.80417e-05
-2.65314e-05
-3.03942e-05
-3.04415e-05
-2.77894e-05
-2.37197e-05
-1.95982e-05
-1.67902e-05
-1.65647e-05
-1.99987e-05
-2.78832e-05
-4.05848e-05
-5.7936e-05
-7.98006e-05
-0.000107598
-0.000140565
7.35977e-05
2.36983e-05
-1.4003e-05
-3.88697e-05
-5.43845e-05
-6.14986e-05
-6.09773e-05
-5.4236e-05
-4.31352e-05
-2.97782e-05
-1.63959e-05
-5.22483e-06
1.64196e-06
2.40749e-06
-4.26885e-06
-1.90459e-05
-4.17201e-05
-7.20584e-05
-0.000112079
-0.000160496
4.963e-05
-2.44767e-05
-7.79839e-05
-0.000110098
-0.00012647
-0.000128878
-0.000118772
-9.85458e-05
-7.12417e-05
-4.0271e-05
-9.25785e-06
1.81264e-05
3.84007e-05
4.8526e-05
4.61882e-05
3.01861e-05
7.44872e-07
-4.17243e-05
-0.000100106
-0.000172231
-1.73743e-05
-0.000127581
-0.000203425
-0.00024409
-0.000258796
-0.000250744
-0.000222497
-0.000177945
-0.000121916
-5.98079e-05
2.59318e-06
5.93127e-05
0.000104552
0.00013312
0.000140944
0.00012577
8.77464e-05
2.7603e-05
-5.86869e-05
-0.00016733
-0.000163623
-0.000326864
-0.000433809
-0.000483993
-0.000492411
-0.000464599
-0.000404805
-0.000319058
-0.000214697
-9.99705e-05
1.61202e-05
0.000123988
0.000213968
0.000277085
0.000305982
0.000296239
0.000247541
0.000161122
3.16361e-05
-0.000133936
-0.00045104
-0.000690931
-0.000840521
-0.000900592
-0.00089532
-0.000833911
-0.000722937
-0.00057115
-0.000389052
-0.000188619
1.66577e-05
0.000211759
0.00038058
0.0005074
0.000578507
0.000584747
0.000524024
0.000398016
0.000200035
-5.64615e-05
-0.000982504
-0.00133103
-0.00153823
-0.00160805
-0.00157901
-0.0014658
-0.00127775
-0.00102639
-0.000725337
-0.000390657
-4.14708e-05
0.000300038
0.000606971
0.000851653
0.00100782
0.00105553
0.000986758
0.00080201
0.000492716
8.53681e-05
-0.00192384
-0.00242266
-0.00270677
-0.00278708
-0.00272411
-0.00254037
-0.00224761
-0.0018586
-0.00138806
-0.000854698
-0.000283164
0.000299421
0.000847173
0.00131215
0.00164353
0.00179659
0.0017451
0.00148043
0.000987312
0.000317226
-0.00353271
-0.0042337
-0.00461999
-0.00471676
-0.00461792
-0.00435674
-0.00394563
-0.00339406
-0.00271136
-0.00191139
-0.00101768
-5.88888e-05
0.000899468
0.0017767
0.00247524
0.00289469
0.00295711
0.00261518
0.00182338
0.000676305
-0.0061911
-0.00715565
-0.00767724
-0.00780954
-0.00769775
-0.00739087
-0.00689861
-0.00621855
-0.00534077
-0.00425377
-0.00295651
-0.00148037
0.00013095
0.00175486
0.00321661
0.00429924
0.00478868
0.00450497
0.00328238
0.00126799
-0.0104359
-0.0117329
-0.0124265
-0.0126288
-0.0125698
-0.0123259
-0.0119022
-0.0112737
-0.010393
-0.00919509
-0.00761327
-0.00560417
-0.00312107
-0.000281251
0.00267918
0.00534843
0.00719111
0.00762035
0.00603918
0.00256372
-0.0169932
-0.0186906
-0.0195575
-0.0198335
-0.019908
-0.0199145
-0.0198586
-0.0196912
-0.0193188
-0.0185992
-0.0173287
-0.0152484
-0.0121541
-0.00785454
-0.00244057
0.00353754
0.00898551
0.0122749
0.0114823
0.00623058
-0.0269425
-0.0289846
-0.0297401
-0.0298419
-0.0299864
-0.0303742
-0.0310041
-0.0318113
-0.0326738
-0.0333837
-0.03359
-0.0327224
-0.0300392
-0.0250383
-0.0169653
-0.00592245
0.00665123
0.0173988
0.0214681
0.0167247
-0.0432659
-0.0448739
-0.0438651
-0.0423142
-0.0415792
-0.0418049
-0.0428583
-0.0446077
-0.0468882
-0.0494236
-0.0517299
-0.0530037
-0.0520261
-0.0472022
-0.0369263
-0.0199711
0.00298892
0.0275009
0.0451782
0.0498119
-0.070986
-0.0646782
-0.0580989
-0.0537189
-0.0513275
-0.0504783
-0.0509693
-0.0526276
-0.0551845
-0.0582011
-0.0609561
-0.0623268
-0.0606056
-0.0527983
-0.0363911
-0.00896403
0.0303923
0.0790494
0.129899
0.16895
-0.22331
-0.127253
-0.0759067
-0.0534919
-0.0429432
-0.0381672
-0.0371805
-0.0387371
-0.0417193
-0.045055
-0.0475245
-0.0475103
-0.0428474
-0.0305532
-0.0053523
0.0388413
0.107441
0.201914
0.319198
0.45593
)
;

boundaryField
{
    movingWall
    {
        type            zeroGradient;
    }
    fixedWalls
    {
        type            zeroGradient;
    }
    frontAndBack
    {
        type            empty;
    }
}


// ************************************************************************* //
