/*--------------------------------*- C++ -*----------------------------------*\
  =========                 |
  \\      /  F ield         | OpenFOAM: The Open Source CFD Toolbox
   \\    /   O peration     | Website:  https://openfoam.org
    \\  /    A nd           | Version:  7
     \\/     M anipulation  |
\*---------------------------------------------------------------------------*/
FoamFile
{
    version     2.0;
    format      ascii;
    class       surfaceScalarField;
    location    "0.2";
    object      phi;
}
// * * * * * * * * * * * * * * * * * * * * * * * * * * * * * * * * * * * * * //

dimensions      [0 3 -1 0 0 0 0];

internalField   nonuniform List<scalar> 
760
(
1.55771e-10
-1.55659e-10
-1.11947e-09
1.27534e-09
-4.23003e-09
3.11072e-09
-8.79104e-09
4.56117e-09
-1.41307e-08
5.33975e-09
-1.95355e-08
5.40487e-09
-2.43732e-08
4.83765e-09
-2.81474e-08
3.77403e-09
-3.0512e-08
2.36443e-09
-3.12675e-08
7.55339e-10
-3.03535e-08
-9.14139e-10
-2.78457e-08
-2.50789e-09
-2.39588e-08
-3.88686e-09
-1.90534e-08
-4.9054e-09
-1.36373e-08
-5.41609e-09
-8.34768e-09
-5.28971e-09
-3.89086e-09
-4.45695e-09
-9.14337e-10
-2.97666e-09
2.40204e-10
-1.15463e-09
2.40211e-10
-1.94309e-09
1.7875e-09
-7.82746e-09
7.15993e-09
-1.70236e-08
1.2307e-08
-2.84657e-08
1.60033e-08
-4.08618e-08
1.77357e-08
-5.29161e-08
1.7459e-08
-6.34807e-08
1.54019e-08
-7.16363e-08
1.19293e-08
-7.67264e-08
7.45416e-09
-7.8364e-08
2.39264e-09
-7.64299e-08
-2.84836e-09
-7.10713e-08
-7.86657e-09
-6.2703e-08
-1.22552e-08
-5.20083e-08
-1.56001e-08
-3.9928e-08
-1.74966e-08
-2.76203e-08
-1.75976e-08
-1.63716e-08
-1.57059e-08
-7.43652e-09
-1.19119e-08
-1.81178e-09
-6.77932e-09
-1.57136e-09
-3.61291e-09
5.4006e-09
-1.36167e-08
1.71639e-08
-2.85402e-08
2.72306e-08
-4.65064e-08
3.39694e-08
-6.55296e-08
3.67589e-08
-8.37408e-08
3.56701e-08
-9.95339e-08
3.11947e-08
-1.11642e-07
2.40368e-08
-1.19164e-07
1.4976e-08
-1.2157e-07
4.79903e-09
-1.18698e-07
-5.72053e-09
-1.1075e-07
-1.58149e-08
-9.82962e-08
-2.47085e-08
-8.22807e-08
-3.16156e-08
-6.40091e-08
-3.57683e-08
-4.5111e-08
-3.64959e-08
-2.74475e-08
-3.33694e-08
-1.29472e-08
-2.64121e-08
-3.36748e-09
-1.63589e-08
-4.93883e-09
-5.35717e-09
1.07578e-08
-2.00702e-08
3.18769e-08
-4.17944e-08
4.89548e-08
-6.76917e-08
5.98666e-08
-9.48834e-08
6.39504e-08
-1.20742e-07
6.15282e-08
-1.43054e-07
5.35068e-08
-1.60097e-07
4.10794e-08
-1.70654e-07
2.55329e-08
-1.7401e-07
8.15501e-09
-1.69942e-07
-9.78785e-09
-1.58722e-07
-2.70352e-08
-1.41121e-07
-4.23099e-08
-1.18423e-07
-5.43132e-08
-9.24249e-08
-6.17662e-08
-6.53947e-08
-6.3526e-08
-3.99666e-08
-5.87973e-08
-1.89374e-08
-4.74411e-08
-4.94329e-09
-3.03532e-08
-9.88227e-09
-7.90739e-09
1.86652e-08
-2.94427e-08
5.34121e-08
-6.1016e-08
8.0528e-08
-9.84222e-08
9.72727e-08
-1.37501e-07
1.03029e-07
-1.74522e-07
9.85493e-08
-2.06382e-07
8.53664e-08
-2.30678e-07
6.53757e-08
-2.45717e-07
4.05721e-08
-2.50497e-07
1.29346e-08
-2.44694e-07
-1.55912e-08
-2.28669e-07
-4.30598e-08
-2.03491e-07
-6.74877e-08
-1.70961e-07
-8.68438e-08
-1.33617e-07
-9.91099e-08
-9.46939e-08
-1.02449e-07
-5.79777e-08
-9.55132e-08
-2.75258e-08
-7.7893e-08
-7.20458e-09
-5.06744e-08
-1.70867e-08
-1.1952e-08
3.06171e-08
-4.40527e-08
8.55127e-08
-9.07047e-08
1.2718e-07
-1.45618e-07
1.52186e-07
-2.02722e-07
1.60133e-07
-2.56656e-07
1.52483e-07
-3.03001e-07
1.31712e-07
-3.38346e-07
1.00721e-07
-3.60272e-07
6.2498e-08
-3.67322e-07
1.99852e-08
-3.58993e-07
-2.39209e-08
-3.35752e-07
-6.63002e-08
-2.99095e-07
-1.04145e-07
-2.51591e-07
-1.34347e-07
-1.96918e-07
-1.53783e-07
-1.39792e-07
-1.59575e-07
-8.57707e-08
-1.49535e-07
-4.0841e-08
-1.22823e-07
-1.07489e-08
-8.07659e-08
-2.78353e-08
-1.83149e-08
4.89319e-08
-6.67129e-08
1.33911e-07
-1.36366e-07
1.96833e-07
-2.17796e-07
2.33616e-07
-3.02097e-07
2.44434e-07
-3.81532e-07
2.31919e-07
-4.49775e-07
1.99955e-07
-5.01934e-07
1.5288e-07
-5.34502e-07
9.5066e-08
-5.45301e-07
3.07849e-08
-5.33485e-07
-3.57367e-08
-4.99606e-07
-1.00179e-07
-4.45725e-07
-1.58026e-07
-3.75537e-07
-2.04535e-07
-2.94426e-07
-2.34894e-07
-2.09394e-07
-2.44607e-07
-1.28748e-07
-2.30181e-07
-6.14793e-08
-1.90092e-07
-1.62637e-08
-1.25981e-07
-4.40991e-08
-2.81474e-08
7.70793e-08
-1.013e-07
2.07063e-07
-2.05537e-07
3.0107e-07
-3.26587e-07
3.54667e-07
-4.51414e-07
3.69261e-07
-5.68891e-07
3.49396e-07
-6.6998e-07
3.01044e-07
-7.47665e-07
2.30565e-07
-7.96808e-07
1.4421e-07
-8.14068e-07
4.80448e-08
-7.97926e-07
-5.18787e-08
-7.48862e-07
-1.49243e-07
-6.69608e-07
-2.37279e-07
-5.65413e-07
-3.0873e-07
-4.44203e-07
-3.56103e-07
-3.16502e-07
-3.72309e-07
-1.94937e-07
-3.51746e-07
-9.32524e-08
-2.91776e-07
-2.47336e-08
-1.945e-07
-6.88329e-08
-4.3105e-08
1.20184e-07
-1.53287e-07
3.17245e-07
-3.08753e-07
4.56535e-07
-4.88167e-07
5.34081e-07
-6.72623e-07
5.53717e-07
-8.4629e-07
5.23063e-07
-9.96394e-07
4.51148e-07
-1.11292e-06
3.47093e-07
-1.18831e-06
2.19596e-07
-1.21729e-06
7.70277e-08
-1.197e-06
-7.21655e-08
-1.12736e-06
-2.18882e-07
-1.01165e-06
-3.52992e-07
-8.57092e-07
-4.6329e-07
-6.75296e-07
-5.379e-07
-4.82224e-07
-5.65381e-07
-2.97428e-07
-5.36541e-07
-1.42365e-07
-4.46838e-07
-3.77497e-08
-2.99116e-07
-1.06582e-07
-6.54979e-08
1.85682e-07
-2.30176e-07
4.81923e-07
-4.60302e-07
6.86661e-07
-7.24371e-07
7.98149e-07
-9.95386e-07
8.24733e-07
-1.25124e-06
7.78919e-07
-1.47422e-06
6.74127e-07
-1.65022e-06
5.23095e-07
-1.76811e-06
3.37481e-07
-1.81942e-06
1.28346e-07
-1.7986e-06
-9.29887e-08
-1.7037e-06
-3.13782e-07
-1.53773e-06
-5.18959e-07
-1.30994e-06
-6.9108e-07
-1.03695e-06
-8.10895e-07
-7.4306e-07
-8.59269e-07
-4.59165e-07
-8.20436e-07
-2.19758e-07
-6.86246e-07
-5.81127e-08
-4.60761e-07
-1.64695e-07
-9.83781e-08
2.8406e-07
-3.41679e-07
7.25224e-07
-6.78454e-07
1.02344e-06
-1.06296e-06
1.18265e-06
-1.4575e-06
1.21928e-06
-1.83208e-06
1.1535e-06
-2.16287e-06
1.00492e-06
-2.43052e-06
7.90744e-07
-2.6188e-06
5.25763e-07
-2.71403e-06
2.23576e-07
-2.70544e-06
-1.01586e-07
-2.5861e-06
-4.33124e-07
-2.35623e-06
-7.48829e-07
-2.02562e-06
-1.02168e-06
-1.61668e-06
-1.21984e-06
-1.16602e-06
-1.30993e-06
-7.23385e-07
-1.26307e-06
-3.46416e-07
-1.06322e-06
-9.12237e-08
-7.15953e-07
-2.55919e-07
-1.45453e-07
4.29513e-07
-4.99294e-07
1.07906e-06
-9.84421e-07
1.50856e-06
-1.53581e-06
1.73404e-06
-2.1024e-06
1.78587e-06
-2.64513e-06
1.69623e-06
-3.13356e-06
1.49334e-06
-3.54232e-06
1.19951e-06
-3.84851e-06
8.31947e-07
-4.03024e-06
4.05305e-07
-4.06778e-06
-6.404e-08
-3.94202e-06
-5.58887e-07
-3.64442e-06
-1.04643e-06
-3.17965e-06
-1.48645e-06
-2.57352e-06
-1.82597e-06
-1.87877e-06
-2.00467e-06
-1.17598e-06
-1.96586e-06
-5.65502e-07
-1.6737e-06
-1.48502e-07
-1.13295e-06
-4.04421e-07
-2.10711e-07
6.40224e-07
-7.14835e-07
1.58319e-06
-1.39899e-06
2.19272e-06
-2.17291e-06
2.50796e-06
-2.97009e-06
2.58304e-06
-3.74274e-06
2.46889e-06
-4.45504e-06
2.20564e-06
-5.07655e-06
1.82102e-06
-5.577e-06
1.3324e-06
-5.92306e-06
7.51367e-07
-6.0798e-06
9.26952e-08
-6.00555e-06
-6.33132e-07
-5.66921e-06
-1.38277e-06
-5.05568e-06
-2.09998e-06
-4.18269e-06
-2.69897e-06
-3.11728e-06
-3.07008e-06
-1.98594e-06
-3.0972e-06
-9.67043e-07
-2.69259e-06
-2.55297e-07
-1.8447e-06
-6.59718e-07
-2.97994e-07
9.38218e-07
-9.98188e-07
2.28338e-06
-1.93629e-06
3.13083e-06
-2.9898e-06
3.56147e-06
-4.07613e-06
3.66937e-06
-5.14207e-06
3.53483e-06
-6.1512e-06
3.21477e-06
-7.07242e-06
2.74224e-06
-7.87069e-06
2.13066e-06
-8.50042e-06
1.3811e-06
-8.9005e-06
4.92774e-07
-9.00324e-06
-5.30389e-07
-8.72694e-06
-1.65907e-06
-8.00974e-06
-2.81718e-06
-6.8312e-06
-3.87751e-06
-5.25135e-06
-4.64993e-06
-3.44722e-06
-4.90133e-06
-1.7241e-06
-4.4157e-06
-4.65547e-07
-3.10326e-06
-1.12526e-06
-4.12095e-07
1.35031e-06
-1.35712e-06
3.22841e-06
-2.59658e-06
4.37029e-06
-3.96643e-06
4.93131e-06
-5.36991e-06
5.07285e-06
-6.756e-06
4.92092e-06
-8.09727e-06
4.55604e-06
-9.37171e-06
4.01668e-06
-1.05483e-05
3.30724e-06
-1.15753e-05
2.40814e-06
-1.23706e-05
1.28807e-06
-1.28301e-05
-7.0923e-08
-1.28032e-05
-1.68592e-06
-1.21505e-05
-3.46995e-06
-1.07608e-05
-5.26719e-06
-8.62493e-06
-6.7858e-06
-5.92311e-06
-7.60314e-06
-3.10438e-06
-7.23443e-06
-8.79593e-07
-5.32805e-06
-2.00486e-06
-5.68513e-07
1.91883e-06
-1.81103e-06
4.47093e-06
-3.36884e-06
5.92809e-06
-5.0227e-06
6.58517e-06
-6.66851e-06
6.71866e-06
-8.27055e-06
6.52296e-06
-9.82437e-06
6.10986e-06
-1.13321e-05
5.5244e-06
-1.27848e-05
4.75991e-06
-1.41475e-05
3.77089e-06
-1.53459e-05
2.48642e-06
-1.62439e-05
8.27139e-07
-1.66751e-05
-1.25472e-06
-1.64091e-05
-3.73599e-06
-1.52001e-05
-6.47623e-06
-1.28656e-05
-9.12023e-06
-9.42944e-06
-1.10393e-05
-5.33611e-06
-1.13278e-05
-1.66119e-06
-9.00297e-06
-3.66605e-06
-8.4775e-07
2.76658e-06
-2.4677e-06
6.09089e-06
-4.26751e-06
7.7279e-06
-5.98439e-06
8.30205e-06
-7.54032e-06
8.27459e-06
-8.93769e-06
7.92032e-06
-1.0212e-05
7.38421e-06
-1.14093e-05
6.72171e-06
-1.25715e-05
5.92212e-06
-1.37243e-05
4.92359e-06
-1.48627e-05
3.62486e-06
-1.59308e-05
1.89528e-06
-1.67615e-05
-4.2408e-07
-1.72202e-05
-3.27723e-06
-1.69377e-05
-6.75876e-06
-1.54949e-05
-1.0563e-05
-1.25175e-05
-1.40167e-05
-8.00833e-06
-1.58369e-05
-2.96409e-06
-1.40472e-05
-6.63014e-06
-1.55312e-06
4.3197e-06
-3.75435e-06
8.29211e-06
-5.45581e-06
9.42936e-06
-6.49151e-06
9.33775e-06
-6.99258e-06
8.77567e-06
-7.11456e-06
8.0423e-06
-6.99347e-06
7.26311e-06
-6.74894e-06
6.47718e-06
-6.49191e-06
5.66509e-06
-6.33228e-06
4.76397e-06
-6.38256e-06
3.67513e-06
-6.75452e-06
2.26724e-06
-7.52523e-06
3.46634e-07
-8.66046e-06
-2.142e-06
-9.95877e-06
-5.46046e-06
-1.09384e-05
-9.58341e-06
-1.08099e-05
-1.41452e-05
-8.66838e-06
-1.79784e-05
-4.23786e-06
-1.84777e-05
-1.0868e-05
-3.33715e-06
7.65686e-06
-4.70979e-06
9.66474e-06
-3.90459e-06
8.62417e-06
-1.91016e-06
7.34332e-06
6.4253e-07
6.22298e-06
3.41656e-06
5.26827e-06
6.2123e-06
4.46737e-06
8.89968e-06
3.78979e-06
1.13755e-05
3.18929e-06
1.35287e-05
2.61073e-06
1.52118e-05
1.99205e-06
1.62127e-05
1.26637e-06
1.61649e-05
3.94427e-07
1.50013e-05
-9.78383e-07
1.24548e-05
-2.91397e-06
8.46375e-06
-5.59238e-06
3.48943e-06
-9.17091e-06
-1.07706e-06
-1.34119e-05
-2.68252e-06
-1.68723e-05
-1.35505e-05
7.65686e-06
1.73216e-05
2.59458e-05
3.32891e-05
3.95121e-05
4.47803e-05
4.92477e-05
5.30375e-05
5.62268e-05
5.88375e-05
6.08296e-05
6.20959e-05
6.24904e-05
6.1512e-05
5.8598e-05
5.30056e-05
4.38347e-05
3.04228e-05
1.35505e-05
)
;

boundaryField
{
    movingWall
    {
        type            calculated;
        value           uniform 0;
    }
    fixedWalls
    {
        type            calculated;
        value           uniform 0;
    }
    frontAndBack
    {
        type            empty;
        value           nonuniform 0();
    }
}


// ************************************************************************* //
