/*--------------------------------*- C++ -*----------------------------------*\
  =========                 |
  \\      /  F ield         | OpenFOAM: The Open Source CFD Toolbox
   \\    /   O peration     | Website:  https://openfoam.org
    \\  /    A nd           | Version:  7
     \\/     M anipulation  |
\*---------------------------------------------------------------------------*/
FoamFile
{
    version     2.0;
    format      ascii;
    class       volVectorField;
    location    "0.2";
    object      U;
}
// * * * * * * * * * * * * * * * * * * * * * * * * * * * * * * * * * * * * * //

dimensions      [0 1 -1 0 0 0 0];

internalField   nonuniform List<vector> 
400
(
(2.85793e-06 -8.13011e-06 0)
(-8.03154e-07 -9.87146e-07 0)
(-2.31432e-05 1.28507e-05 0)
(-6.28196e-05 2.50579e-05 0)
(-0.000113842 3.24277e-05 0)
(-0.000169034 3.43505e-05 0)
(-0.000221488 3.14377e-05 0)
(-0.000265478 2.47868e-05 0)
(-0.000296776 1.55841e-05 0)
(-0.000312665 4.93849e-06 0)
(-0.000311858 -6.13435e-06 0)
(-0.00029443 -1.66565e-05 0)
(-0.000261824 -2.56124e-05 0)
(-0.000216907 -3.18992e-05 0)
(-0.00016404 -3.43544e-05 0)
(-0.00010904 -3.19351e-05 0)
(-5.88174e-05 -2.41285e-05 0)
(-2.04551e-05 -1.16899e-05 0)
(5.40964e-07 2.01654e-06 0)
(3.07035e-06 8.55667e-06 0)
(-5.42904e-06 6.42951e-06 0)
(-4.0075e-05 6.17711e-05 0)
(-0.000116838 0.000123305 0)
(-0.000223495 0.00017053 0)
(-0.000346062 0.000194918 0)
(-0.000471295 0.000195118 0)
(-0.000586885 0.000173733 0)
(-0.000682384 0.000135241 0)
(-0.000749864 8.47116e-05 0)
(-0.000784109 2.71881e-05 0)
(-0.000782597 -3.24619e-05 0)
(-0.000745468 -8.94532e-05 0)
(-0.000675523 -0.000138923 0)
(-0.000578258 -0.000175859 0)
(-0.00046185 -0.0001953 0)
(-0.000336925 -0.000192995 0)
(-0.000215829 -0.000166728 0)
(-0.000111619 -0.000118406 0)
(-3.75815e-05 -5.71622e-05 0)
(-4.92505e-06 -3.95517e-06 0)
(-1.1399e-05 6.48429e-05 0)
(-7.26416e-05 0.000224134 0)
(-0.000199904 0.000367694 0)
(-0.000370011 0.000467425 0)
(-0.000560061 0.000511704 0)
(-0.000750512 0.000500212 0)
(-0.000924037 0.000439505 0)
(-0.00106619 0.000339652 0)
(-0.00116608 0.000212009 0)
(-0.00121656 6.80768e-05 0)
(-0.00121419 -8.08452e-05 0)
(-0.00115916 -0.00022356 0)
(-0.00105532 -0.000348765 0)
(-0.000910245 -0.000445018 0)
(-0.000735233 -0.000501179 0)
(-0.000545082 -0.00050768 0)
(-0.000357253 -0.000458842 0)
(-0.000191029 -0.000356255 0)
(-6.82121e-05 -0.000213006 0)
(-1.03448e-05 -5.84216e-05 0)
(-1.71176e-05 0.000152248 0)
(-0.00010768 0.00046485 0)
(-0.000293993 0.000724413 0)
(-0.000540427 0.000894278 0)
(-0.000813151 0.000961391 0)
(-0.00108435 0.000929002 0)
(-0.00133 0.000810251 0)
(-0.00153037 0.00062326 0)
(-0.00167073 0.000387895 0)
(-0.00174144 0.000124147 0)
(-0.00173784 -0.000148309 0)
(-0.00166016 -0.00040993 0)
(-0.00151356 -0.000640964 0)
(-0.00130832 -0.000821396 0)
(-0.00105989 -0.000931632 0)
(-0.000788712 -0.000954391 0)
(-0.000519234 -0.000878181 0)
(-0.000279018 -0.000702294 0)
(-0.000100158 -0.000442895 0)
(-1.5291e-05 -0.000139553 0)
(-2.55681e-05 0.000279918 0)
(-0.000158755 0.000813983 0)
(-0.000430527 0.00123815 0)
(-0.000787548 0.00150488 0)
(-0.00118038 0.00160093 0)
(-0.00156926 0.00153598 0)
(-0.00192036 0.00133322 0)
(-0.00220614 0.00102229 0)
(-0.00240611 0.000634865 0)
(-0.00250683 0.000202506 0)
(-0.00250169 -0.000243749 0)
(-0.00239085 -0.000672966 0)
(-0.00218139 -0.00105375 0)
(-0.00188758 -0.0013541 0)
(-0.0015312 -0.00154243 0)
(-0.00114124 -0.00159023 0)
(-0.000752698 -0.0014772 0)
(-0.000405335 -0.00119846 0)
(-0.000145923 -0.000773577 0)
(-2.23929e-05 -0.000256557 0)
(-3.93246e-05 0.000470589 0)
(-0.00023922 0.00132936 0)
(-0.000642441 0.00199053 0)
(-0.00116813 0.00239365 0)
(-0.00174326 0.00252749 0)
(-0.00231039 0.00241248 0)
(-0.00282129 0.00208687 0)
(-0.00323685 0.00159684 0)
(-0.00352793 0.000990613 0)
(-0.00367522 0.000315844 0)
(-0.00366892 -0.00038059 0)
(-0.00350876 -0.00105171 0)
(-0.0032044 -0.00164947 0)
(-0.00277605 -0.00212451 0)
(-0.00225501 -0.00242761 0)
(-0.00168344 -0.00251372 0)
(-0.00111252 -0.00234922 0)
(-0.000600734 -0.00192261 0)
(-0.000217331 -0.00125771 0)
(-3.37154e-05 -0.000428861 0)
(-6.1414e-05 0.000761415 0)
(-0.000365154 0.00210325 0)
(-0.000969859 0.00310964 0)
(-0.00175179 0.00370673 0)
(-0.00260234 0.00389009 0)
(-0.00343814 0.00369792 0)
(-0.00419011 0.00319101 0)
(-0.00480234 0.00243932 0)
(-0.0052329 0.00151427 0)
(-0.00545346 0.000485924 0)
(-0.00544883 -0.000576586 0)
(-0.00521731 -0.0016033 0)
(-0.00477165 -0.0025218 0)
(-0.0041404 -0.00325684 0)
(-0.00336898 -0.00373263 0)
(-0.0025196 -0.00387889 0)
(-0.00166851 -0.00364171 0)
(-0.000903345 -0.00299901 0)
(-0.000328332 -0.00198002 0)
(-5.14385e-05 -0.000687895 0)
(-9.6139e-05 0.00120871 0)
(-0.000558893 0.00327366 0)
(-0.00146789 0.00478527 0)
(-0.00263369 0.00565936 0)
(-0.00389487 0.00590766 0)
(-0.00513088 0.0055975 0)
(-0.00624308 0.00482342 0)
(-0.00715172 0.00368913 0)
(-0.00779619 0.00229811 0)
(-0.00813417 0.000751229 0)
(-0.00814116 -0.000851358 0)
(-0.00781146 -0.00240671 0)
(-0.00716044 -0.00380622 0)
(-0.00622745 -0.00493514 0)
(-0.0050783 -0.00567636 0)
(-0.00380564 -0.00592005 0)
(-0.00252482 -0.00558025 0)
(-0.00136954 -0.00461803 0)
(-0.000499137 -0.0030699 0)
(-7.85777e-05 -0.00108084 0)
(-0.00014982 0.00189626 0)
(-0.000852293 0.00504264 0)
(-0.0022139 0.00729272 0)
(-0.00394639 0.00856224 0)
(-0.00581151 0.00889634 0)
(-0.00763679 0.00840967 0)
(-0.00928307 0.00724658 0)
(-0.0106375 0.00555775 0)
(-0.0116127 0.00348967 0)
(-0.0121445 0.00118412 0)
(-0.0121917 -0.00121668 0)
(-0.0117386 -0.00356297 0)
(-0.0107996 -0.00569208 0)
(-0.00942585 -0.00742777 0)
(-0.00771121 -0.00858667 0)
(-0.00579394 -0.00899435 0)
(-0.00385124 -0.00851226 0)
(-0.00209139 -0.00707365 0)
(-0.000762553 -0.00472608 0)
(-0.000119969 -0.00167889 0)
(-0.000231457 0.0029471 0)
(-0.00128946 0.00770156 0)
(-0.00331335 0.0110249 0)
(-0.00586904 0.012857 0)
(-0.0086094 0.013307 0)
(-0.0112919 0.0125653 0)
(-0.0137243 0.0108487 0)
(-0.0157497 0.00837087 0)
(-0.0172428 0.00533309 0)
(-0.0181059 0.00192796 0)
(-0.0182676 -0.00164828 0)
(-0.0176883 -0.00518179 0)
(-0.0163699 -0.00842955 0)
(-0.0143708 -0.0111182 0)
(-0.0118185 -0.0129545 0)
(-0.00891773 -0.0136536 0)
(-0.00594428 -0.0129851 0)
(-0.00323132 -0.0108331 0)
(-0.00117656 -0.00726365 0)
(-0.000184101 -0.00259302 0)
(-0.000353162 0.00453792 0)
(-0.00192811 0.0116608 0)
(-0.00490181 0.0165293 0)
(-0.00862977 0.0191572 0)
(-0.0126151 0.0197704 0)
(-0.0165259 0.018679 0)
(-0.0201045 0.0162028 0)
(-0.0231395 0.0126366 0)
(-0.025455 0.00824473 0)
(-0.0269021 0.00327542 0)
(-0.0273565 -0.00201361 0)
(-0.0267255 -0.00732795 0)
(-0.0249688 -0.0123084 0)
(-0.0221293 -0.0165283 0)
(-0.0183627 -0.0195077 0)
(-0.0139618 -0.0207625 0)
(-0.00935771 -0.0198884 0)
(-0.00509977 -0.0166723 0)
(-0.0018535 -0.0112086 0)
(-0.000287412 -0.00400624 0)
(-0.000529967 0.00691398 0)
(-0.00283753 0.0174783 0)
(-0.00713813 0.0245416 0)
(-0.0124916 0.0282849 0)
(-0.0182028 0.0291404 0)
(-0.0238338 0.0276056 0)
(-0.0290564 0.0241445 0)
(-0.0336002 0.0191489 0)
(-0.0372278 0.0129436 0)
(-0.0397179 0.00582034 0)
(-0.0408595 -0.00191202 0)
(-0.0404511 -0.00987296 0)
(-0.0383418 -0.0175527 0)
(-0.0344962 -0.0242903 0)
(-0.0290521 -0.0292864 0)
(-0.0223912 -0.031682 0)
(-0.0151739 -0.0307164 0)
(-0.00832813 -0.0259501 0)
(-0.00303033 -0.0175034 0)
(-0.000466119 -0.00624725 0)
(-0.000778616 0.0103993 0)
(-0.00409094 0.0258749 0)
(-0.010182 0.0359961 0)
(-0.0177068 0.0412779 0)
(-0.0257192 0.0425069 0)
(-0.0336705 0.0404736 0)
(-0.0411749 0.0358416 0)
(-0.0479164 0.0291097 0)
(-0.0536002 0.0206369 0)
(-0.0579157 0.0107087 0)
(-0.0605171 -0.000369092 0)
(-0.0610132 -0.0121619 0)
(-0.0590186 -0.0240158 0)
(-0.0542699 -0.0349467 0)
(-0.0467451 -0.0436286 0)
(-0.0368313 -0.0484931 0)
(-0.0254656 -0.0480092 0)
(-0.014205 -0.0411513 0)
(-0.00522467 -0.027959 0)
(-0.000808621 -0.00997064 0)
(-0.00111708 0.0153975 0)
(-0.00575603 0.0377202 0)
(-0.0141566 0.051983 0)
(-0.0244282 0.0593179 0)
(-0.0353202 0.0611119 0)
(-0.046193 0.0586144 0)
(-0.0566504 0.0527678 0)
(-0.0663823 0.0441803 0)
(-0.0750756 0.033184 0)
(-0.0823369 0.019948 0)
(-0.0876383 0.00463116 0)
(-0.0903256 -0.0124321 0)
(-0.0896188 -0.0305399 0)
(-0.0847498 -0.0483586 0)
(-0.0752349 -0.0637958 0)
(-0.0611817 -0.0740242 0)
(-0.0436692 -0.0758829 0)
(-0.0251102 -0.0667996 0)
(-0.00950926 -0.0461673 0)
(-0.00152958 -0.016586 0)
(-0.00157464 0.0223889 0)
(-0.00790966 0.0539784 0)
(-0.019125 0.0735979 0)
(-0.0325823 0.0834745 0)
(-0.0466721 0.0860046 0)
(-0.0607221 0.0831584 0)
(-0.0744221 0.0762736 0)
(-0.0875685 0.0660665 0)
(-0.0999256 0.0527445 0)
(-0.1111 0.0361752 0)
(-0.120442 0.016103 0)
(-0.127004 -0.00755772 0)
(-0.12948 -0.0343168 0)
(-0.126352 -0.062708 0)
(-0.116261 -0.0897862 0)
(-0.0984437 -0.110834 0)
(-0.0734935 -0.119663 0)
(-0.0443926 -0.110034 0)
(-0.0178007 -0.0786669 0)
(-0.00311178 -0.0290066 0)
(-0.00225823 0.0320134 0)
(-0.0107846 0.0756492 0)
(-0.025203 0.101568 0)
(-0.0417931 0.114013 0)
(-0.0585324 0.11708 0)
(-0.0748355 0.113828 0)
(-0.0906258 0.106134 0)
(-0.105953 0.0948251 0)
(-0.120824 0.0798818 0)
(-0.135059 0.0606681 0)
(-0.148125 0.0362006 0)
(-0.158976 0.00554089 0)
(-0.166065 -0.0315942 0)
(-0.167337 -0.0740621 0)
(-0.160314 -0.118515 0)
(-0.142645 -0.158241 0)
(-0.113121 -0.182736 0)
(-0.073639 -0.178821 0)
(-0.0327145 -0.135358 0)
(-0.00664054 -0.0527059 0)
(-0.00369699 0.0458069 0)
(-0.0155284 0.104348 0)
(-0.0332115 0.136054 0)
(-0.0514599 0.149296 0)
(-0.0680391 0.151146 0)
(-0.0827782 0.146256 0)
(-0.0960459 0.137163 0)
(-0.108316 0.124813 0)
(-0.120068 0.108946 0)
(-0.131689 0.0883773 0)
(-0.143322 0.0612766 0)
(-0.154611 0.0255595 0)
(-0.164474 -0.0204887 0)
(-0.171461 -0.0772081 0)
(-0.172842 -0.142017 0)
(-0.164534 -0.207615 0)
(-0.142174 -0.259809 0)
(-0.103611 -0.276182 0)
(-0.0545216 -0.228968 0)
(-0.0139156 -0.0991719 0)
(-0.00778069 0.0666338 0)
(-0.026394 0.138494 0)
(-0.0467266 0.171205 0)
(-0.0610815 0.181072 0)
(-0.0686289 0.178202 0)
(-0.0713741 0.168736 0)
(-0.0710568 0.156032 0)
(-0.0689738 0.141407 0)
(-0.0662614 0.124679 0)
(-0.0640215 0.104533 0)
(-0.0633709 0.0787469 0)
(-0.0654231 0.0443985 0)
(-0.0711202 -0.00186198 0)
(-0.0809664 -0.063166 0)
(-0.0934529 -0.14004 0)
(-0.105085 -0.228528 0)
(-0.109479 -0.315883 0)
(-0.0989864 -0.374286 0)
(-0.0686326 -0.354597 0)
(-0.023158 -0.186362 0)
(-0.0176174 0.138119 0)
(-0.0448544 0.210665 0)
(-0.0470115 0.207519 0)
(-0.0313381 0.187123 0)
(-0.00733589 0.164849 0)
(0.0199776 0.144123 0)
(0.0481804 0.125735 0)
(0.0758104 0.10943 0)
(0.101777 0.0943065 0)
(0.125068 0.0790051 0)
(0.144465 0.0617539 0)
(0.158157 0.0402923 0)
(0.163198 0.0117031 0)
(0.157693 -0.0278374 0)
(0.13992 -0.0836743 0)
(0.10818 -0.161191 0)
(0.063492 -0.259692 0)
(0.0122927 -0.35987 0)
(-0.0255475 -0.405792 0)
(-0.013982 -0.275453 0)
(0.0939514 0.0961102 0)
(0.123787 0.134364 0)
(0.209218 0.127847 0)
(0.294899 0.11211 0)
(0.365386 0.0956975 0)
(0.423044 0.0806879 0)
(0.471436 0.067649 0)
(0.512522 0.0565686 0)
(0.547287 0.0471151 0)
(0.576188 0.0387819 0)
(0.59915 0.030953 0)
(0.615531 0.0229057 0)
(0.623716 0.0137504 0)
(0.621331 0.00282584 0)
(0.603401 -0.0113259 0)
(0.563634 -0.0309199 0)
(0.495121 -0.0590904 0)
(0.384276 -0.103579 0)
(0.227097 -0.162162 0)
(0.123367 -0.146853 0)
)
;

boundaryField
{
    movingWall
    {
        type            fixedValue;
        value           uniform (1 0 0);
    }
    fixedWalls
    {
        type            noSlip;
    }
    frontAndBack
    {
        type            empty;
    }
}


// ************************************************************************* //
