/*--------------------------------*- C++ -*----------------------------------*\
  =========                 |
  \\      /  F ield         | OpenFOAM: The Open Source CFD Toolbox
   \\    /   O peration     | Website:  https://openfoam.org
    \\  /    A nd           | Version:  7
     \\/     M anipulation  |
\*---------------------------------------------------------------------------*/
FoamFile
{
    version     2.0;
    format      ascii;
    class       volScalarField;
    location    "0.1";
    object      p;
}
// * * * * * * * * * * * * * * * * * * * * * * * * * * * * * * * * * * * * * //

dimensions      [0 2 -2 0 0 0 0];

internalField   nonuniform List<scalar> 
400
(
1.64526e-10
-7.97832e-07
1.49686e-06
6.68698e-06
1.44733e-05
2.46027e-05
3.6764e-05
5.05789e-05
6.56182e-05
8.14149e-05
9.74778e-05
0.000113306
0.000128406
0.000142302
0.000154556
0.000164779
0.000172649
0.000177903
0.000180235
0.000179446
-5.31965e-06
-6.3096e-06
-3.88365e-06
1.63091e-06
9.88162e-06
2.06112e-05
3.34979e-05
4.81435e-05
6.40937e-05
8.08528e-05
9.78992e-05
0.0001147
0.000130728
0.00014548
0.000158487
0.000169337
0.000177695
0.00018329
0.00018576
0.000184778
-2.30973e-05
-2.43618e-05
-2.15238e-05
-1.4997e-05
-5.21527e-06
7.51368e-06
2.28083e-05
4.01973e-05
5.91426e-05
7.90569e-05
9.93208e-05
0.000119301
0.000138371
0.000155928
0.000171414
0.000184335
0.000194286
0.000200938
0.000203845
0.000202588
-5.46948e-05
-5.62829e-05
-5.26448e-05
-4.43047e-05
-3.18134e-05
-1.55608e-05
3.96966e-06
2.61808e-05
5.03895e-05
7.58493e-05
0.000101771
0.000127347
0.000151773
0.000174278
0.000194143
0.00021073
0.000223517
0.000232077
0.000235834
0.000234259
-0.000103866
-0.000105904
-0.000100997
-8.98339e-05
-7.31415e-05
-5.14338e-05
-2.53484e-05
4.32598e-06
3.66855e-05
7.07398e-05
0.000105439
0.000139706
0.000172464
0.000202676
0.000229373
0.000251695
0.000268929
0.000280495
0.000285624
0.000283613
-0.000176499
-0.000179162
-0.00017237
-0.000157054
-0.000134193
-0.000104481
-6.87737e-05
-2.81365e-05
1.62089e-05
6.29191e-05
0.000110565
0.000157672
0.000202763
0.000244407
0.000281261
0.000312125
0.000336002
0.00035208
0.000359293
0.000356693
-0.000281223
-0.000284742
-0.000275237
-0.00025398
-0.000222306
-0.000181154
-0.000131687
-7.535e-05
-1.38107e-05
5.10913e-05
0.00011739
0.000183042
0.000245992
0.000304235
0.000355878
0.000399215
0.000432823
0.000455536
0.000465856
0.000462477
-0.000430383
-0.000435074
-0.000421736
-0.000392119
-0.00034805
-0.000290798
-0.000221939
-0.000143434
-5.75574e-05
3.31677e-05
0.000126028
0.000218179
0.000306742
0.000388878
0.000461887
0.000523314
0.000571089
0.000603507
0.000618431
0.000614048
-0.000641401
-0.000647703
-0.000629027
-0.000587788
-0.000526486
-0.000446822
-0.000350912
-0.000241402
-0.000121374
5.72845e-06
0.000136172
0.000265993
0.000391147
0.000507594
0.000611446
0.000699118
0.00076755
0.000814198
0.000835967
0.000830312
-0.000938639
-0.000947185
-0.000921177
-0.000863964
-0.000778951
-0.000668397
-0.000535102
-0.00038259
-0.000214988
-3.69504e-05
0.000146428
0.000329654
0.000507039
0.000672815
0.000821327
0.000947272
0.00104603
0.00111372
0.00114576
0.00113853
-0.00135596
-0.00136769
-0.00133176
-0.00125285
-0.00113558
-0.000982907
-0.000798468
-0.000586863
-0.000353524
-0.000104635
0.000152952
0.000411725
0.000663688
0.0009006
0.00111417
0.00129644
0.00144026
0.0015395
0.00158718
0.00157806
-0.00194022
-0.00195655
-0.00190742
-0.00179942
-0.00163883
-0.00142946
-0.0011759
-0.000884019
-0.000560775
-0.000214176
0.000146782
0.000512084
0.000870556
0.00121047
0.00151962
0.00178585
0.00199779
0.00214535
0.00221743
0.00220622
-0.00275615
-0.00277933
-0.00271296
-0.00256647
-0.00234854
-0.00206393
-0.00171833
-0.00131895
-0.000874404
-0.000394685
0.00010884
0.000623524
0.00113393
0.00162356
0.00207454
0.00246805
0.00278551
0.00300944
0.00312105
0.00310786
-0.00389342
-0.00392709
-0.00383857
-0.00364187
-0.00334912
-0.00296634
-0.00250027
-0.00195947
-0.00135415
-0.000696237
6.40957e-07
0.000722792
0.00144884
0.00215642
0.00281994
0.00341036
0.00389654
0.00424661
0.00442588
0.00441208
-0.00547808
-0.00552803
-0.00541094
-0.00514892
-0.00475971
-0.00425076
-0.00362989
-0.00290688
-0.00209325
-0.00120282
-0.000252488
0.000754219
0.00178162
0.00280408
0.00378759
0.00468866
0.00545481
0.00602557
0.00633075
0.00632321
-0.00769503
-0.00777045
-0.00761303
-0.00726301
-0.00674847
-0.00607825
-0.00526102
-0.00430754
-0.00322943
-0.00203868
-0.000747475
0.000612949
0.00203877
0.00350171
0.00496226
0.00636152
0.00761422
0.00860283
0.00917188
0.00920336
-0.0108071
-0.0109015
-0.0106885
-0.0102257
-0.00954929
-0.00867076
-0.00760412
-0.00636524
-0.00496827
-0.00342413
-0.00174127
7.04763e-05
0.0019998
0.00404462
0.00618633
0.00837291
0.010492
0.0123251
0.013509
0.0137456
-0.015909
-0.0157698
-0.0152084
-0.0144631
-0.0135069
-0.0123178
-0.0109081
-0.00930207
-0.00752041
-0.0055715
-0.00344472
-0.00111419
0.00127463
0.00390869
0.00682361
0.0100255
0.0134486
0.0168242
0.0195037
0.0208279
-0.0206165
-0.0211784
-0.0212128
-0.0206372
-0.0194266
-0.0177132
-0.0156817
-0.0134726
-0.0111642
-0.00878802
-0.00634758
-0.00383076
-0.00100547
0.00211404
0.00569257
0.00999905
0.0153594
0.0219731
0.0293393
0.0364959
-0.054401
-0.0357121
-0.0288621
-0.0257259
-0.0230843
-0.0204419
-0.0178537
-0.0153134
-0.0127728
-0.0101879
-0.00749305
-0.00457729
-0.0012171
0.00292583
0.00842312
0.0161395
0.0271731
0.0427445
0.0626771
0.089543
)
;

boundaryField
{
    movingWall
    {
        type            zeroGradient;
    }
    fixedWalls
    {
        type            zeroGradient;
    }
    frontAndBack
    {
        type            empty;
    }
}


// ************************************************************************* //
