/*--------------------------------*- C++ -*----------------------------------*\
  =========                 |
  \\      /  F ield         | OpenFOAM: The Open Source CFD Toolbox
   \\    /   O peration     | Website:  https://openfoam.org
    \\  /    A nd           | Version:  7
     \\/     M anipulation  |
\*---------------------------------------------------------------------------*/
FoamFile
{
    version     2.0;
    format      ascii;
    class       surfaceScalarField;
    location    "0.1";
    object      phi;
}
// * * * * * * * * * * * * * * * * * * * * * * * * * * * * * * * * * * * * * //

dimensions      [0 3 -1 0 0 0 0];

internalField   nonuniform List<scalar> 
760
(
-3.04133e-09
3.04131e-09
-8.22253e-09
5.18121e-09
-1.37466e-08
5.52406e-09
-1.89973e-08
5.2507e-09
-2.37329e-08
4.73556e-09
-2.78059e-08
4.07302e-09
-3.1101e-08
3.29511e-09
-3.35261e-08
2.42514e-09
-3.50133e-08
1.48723e-09
-3.55205e-08
5.07236e-10
-3.50327e-08
-4.87744e-10
-3.35626e-08
-1.47005e-09
-3.11503e-08
-2.41232e-09
-2.78621e-08
-3.2882e-09
-2.37892e-08
-4.07291e-09
-1.90469e-08
-4.74231e-09
-1.37836e-08
-5.26332e-09
-8.2435e-09
-5.5401e-09
-3.04738e-09
-5.19612e-09
-3.04736e-09
-4.20856e-09
7.24987e-09
-1.10538e-08
1.20264e-08
-1.82859e-08
1.27562e-08
-2.51544e-08
1.21192e-08
-3.1351e-08
1.09322e-08
-3.66823e-08
9.40423e-09
-4.09961e-08
7.60897e-09
-4.41716e-08
5.60066e-09
-4.61196e-08
3.43527e-09
-4.6785e-08
1.17257e-09
-4.61478e-08
-1.12486e-09
-4.42247e-08
-3.39319e-09
-4.10678e-08
-5.56922e-09
-3.67641e-08
-7.59195e-09
-3.14332e-08
-9.40377e-09
-2.52271e-08
-1.09484e-08
-1.83407e-08
-1.21498e-08
-1.10855e-08
-1.27952e-08
-4.21863e-09
-1.2063e-08
-7.26599e-09
-5.04906e-09
1.22989e-08
-1.32956e-08
2.0273e-08
-2.20055e-08
2.14661e-08
-3.0272e-08
2.03857e-08
-3.77282e-08
1.83884e-08
-4.41435e-08
1.58195e-08
-4.93363e-08
1.28018e-08
-5.31613e-08
9.42573e-09
-5.55112e-08
5.78517e-09
-5.6319e-08
1.98036e-09
-5.55601e-08
-1.88373e-09
-5.32534e-08
-5.69985e-09
-4.94609e-08
-9.36177e-09
-4.42861e-08
-1.27668e-08
-3.7872e-08
-1.58178e-08
-3.04003e-08
-1.84202e-08
-2.21036e-08
-2.04465e-08
-1.33542e-08
-2.15446e-08
-5.0689e-09
-2.03483e-08
-1.23349e-08
-6.40435e-09
1.87033e-08
-1.68627e-08
3.07314e-08
-2.79084e-08
3.25117e-08
-3.83924e-08
3.08698e-08
-4.78507e-08
2.78466e-08
-5.59918e-08
2.39607e-08
-6.25857e-08
1.93957e-08
-6.74481e-08
1.42882e-08
-7.04421e-08
8.77911e-09
-7.14814e-08
3.01972e-09
-7.05335e-08
-2.83167e-09
-6.76205e-08
-8.61287e-09
-6.28193e-08
-1.41631e-08
-5.62596e-08
-1.93265e-08
-4.81219e-08
-2.39556e-08
-3.86358e-08
-2.79063e-08
-2.80965e-08
-3.09858e-08
-1.69775e-08
-3.26636e-08
-6.44516e-09
-3.08806e-08
-1.87801e-08
-8.4623e-09
2.71656e-08
-2.22594e-08
4.45285e-08
-3.68263e-08
4.70786e-08
-5.06538e-08
4.46973e-08
-6.31326e-08
4.03253e-08
-7.38797e-08
3.47078e-08
-8.25922e-08
2.81081e-08
-8.90262e-08
2.07222e-08
-9.3e-08
1.27529e-08
-9.43979e-08
4.41757e-09
-9.31737e-08
-4.05583e-09
-8.93538e-08
-1.24328e-08
-8.30363e-08
-2.04806e-08
-7.43897e-08
-2.79731e-08
-6.36501e-08
-3.46952e-08
-5.11196e-08
-4.04367e-08
-3.71886e-08
-4.49169e-08
-2.24831e-08
-4.73691e-08
-8.54435e-09
-4.48194e-08
-2.73244e-08
-1.14449e-08
3.86105e-08
-3.0069e-08
6.31526e-08
-4.97227e-08
6.67323e-08
-6.83804e-08
6.3355e-08
-8.52252e-08
5.71702e-08
-9.9743e-08
4.92255e-08
-1.11526e-07
3.98907e-08
-1.20244e-07
2.94405e-08
-1.2565e-07
1.81592e-08
-1.27585e-07
6.35233e-09
-1.25981e-07
-5.65991e-09
-1.20868e-07
-1.75459e-08
-1.12372e-07
-2.89764e-08
-1.00716e-07
-3.96295e-08
-8.62134e-08
-4.91976e-08
-6.92716e-08
-5.73785e-08
-5.0418e-08
-6.37705e-08
-3.05013e-08
-6.72857e-08
-1.16069e-08
-6.37138e-08
-3.89313e-08
-1.56716e-08
5.4282e-08
-4.11226e-08
8.86036e-08
-6.79664e-08
9.3576e-08
-9.34522e-08
8.88407e-08
-1.16473e-07
8.01908e-08
-1.3633e-07
6.90832e-08
-1.5247e-07
5.60307e-08
-1.64443e-07
4.14129e-08
-1.71907e-07
2.56232e-08
-1.74638e-07
9.08378e-09
-1.72536e-07
-7.76203e-09
-1.65631e-07
-2.44513e-08
-1.54083e-07
-4.05244e-08
-1.38184e-07
-5.55275e-08
-1.18358e-07
-6.90239e-08
-9.51549e-08
-8.05817e-08
-6.92975e-08
-8.96279e-08
-4.19539e-08
-9.46293e-08
-1.5988e-08
-8.96797e-08
-5.49192e-08
-2.15922e-08
7.58742e-08
-5.65893e-08
1.23601e-07
-9.34805e-08
1.30467e-07
-1.28508e-07
1.23868e-07
-1.60164e-07
1.11847e-07
-1.87499e-07
9.6418e-08
-2.09756e-07
7.82879e-08
-2.2632e-07
5.79768e-08
-2.36719e-07
3.6022e-08
-2.40635e-07
1.30006e-08
-2.37914e-07
-1.04831e-08
-2.28578e-07
-3.37878e-08
-2.12823e-07
-5.62792e-08
-1.91029e-07
-7.73211e-08
-1.63758e-07
-9.62948e-08
-1.31759e-07
-1.12581e-07
-9.60268e-08
-1.2536e-07
-5.81852e-08
-1.32471e-07
-2.22066e-08
-1.25658e-07
-7.71259e-08
-2.98344e-08
1.05709e-07
-7.80973e-08
1.71864e-07
-1.28938e-07
1.81308e-07
-1.77208e-07
1.72138e-07
-2.20854e-07
1.55492e-07
-2.58585e-07
1.34149e-07
-2.89374e-07
1.09078e-07
-3.12383e-07
8.09859e-08
-3.26961e-07
5.06e-08
-3.32659e-07
1.86978e-08
-3.29229e-07
-1.39124e-08
-3.16669e-07
-4.63479e-08
-2.95202e-07
-7.77462e-08
-2.65303e-07
-1.0722e-07
-2.27705e-07
-1.33893e-07
-1.83416e-07
-1.5687e-07
-1.3381e-07
-1.74966e-07
-8.11595e-08
-1.85121e-07
-3.10221e-08
-1.75796e-07
-1.08148e-07
-4.12733e-08
1.46982e-07
-1.0791e-07
2.385e-07
-1.78041e-07
2.51438e-07
-2.44602e-07
2.387e-07
-3.04803e-07
2.15692e-07
-3.56904e-07
1.8625e-07
-3.99528e-07
1.51702e-07
-4.31548e-07
1.13006e-07
-4.52077e-07
7.11291e-08
-4.60482e-07
2.71023e-08
-4.5637e-07
-1.80238e-08
-4.39667e-07
-6.30505e-08
-4.10587e-07
-1.06827e-07
-3.69679e-07
-1.48128e-07
-3.17862e-07
-1.8571e-07
-2.56464e-07
-2.18268e-07
-1.87372e-07
-2.44057e-07
-1.13789e-07
-2.58704e-07
-4.35613e-08
-2.46024e-07
-1.51709e-07
-5.71411e-08
2.04123e-07
-1.49198e-07
3.30558e-07
-2.45935e-07
3.48176e-07
-3.37656e-07
3.30421e-07
-4.20583e-07
2.98619e-07
-4.92408e-07
2.58076e-07
-5.5133e-07
2.10624e-07
-5.95876e-07
1.57551e-07
-6.24872e-07
1.00126e-07
-6.37442e-07
3.96723e-08
-6.3297e-07
-2.24963e-08
-6.11206e-07
-8.4814e-08
-5.72261e-07
-1.45773e-07
-5.16669e-07
-2.0372e-07
-4.45479e-07
-2.569e-07
-3.60358e-07
-3.03389e-07
-2.63857e-07
-3.40559e-07
-1.60516e-07
-3.62045e-07
-6.15486e-08
-3.44991e-07
-2.13258e-07
-7.92163e-08
2.83339e-07
-2.06494e-07
4.57836e-07
-3.39889e-07
4.8157e-07
-4.66059e-07
4.56591e-07
-5.7994e-07
4.125e-07
-6.78558e-07
3.56694e-07
-7.59661e-07
2.91727e-07
-8.21437e-07
2.19327e-07
-8.62422e-07
1.41111e-07
-8.81456e-07
5.87057e-08
-8.77599e-07
-2.63528e-08
-8.50214e-07
-1.122e-07
-7.99101e-07
-1.96885e-07
-7.2452e-07
-2.78301e-07
-6.27407e-07
-3.54013e-07
-5.09627e-07
-4.21169e-07
-3.74484e-07
-4.75703e-07
-2.28427e-07
-5.08102e-07
-8.77603e-08
-4.85657e-07
-3.01018e-07
-1.10196e-07
3.93535e-07
-2.86555e-07
6.34195e-07
-4.70481e-07
6.65496e-07
-6.43548e-07
6.29658e-07
-7.9908e-07
5.68032e-07
-9.33459e-07
4.91072e-07
-1.04414e-06
4.02404e-07
-1.12914e-06
3.04334e-07
-1.18687e-06
1.98837e-07
-1.21593e-06
8.7765e-08
-1.21502e-06
-2.72642e-08
-1.18265e-06
-1.44568e-07
-1.11792e-06
-2.6161e-07
-1.0202e-06
-3.7602e-07
-8.89608e-07
-4.84609e-07
-7.27575e-07
-5.83202e-07
-5.37903e-07
-6.65375e-07
-3.29627e-07
-7.16377e-07
-1.27005e-07
-6.8828e-07
-4.28023e-07
-1.54562e-07
5.48097e-07
-4.00231e-07
8.79864e-07
-6.54018e-07
9.19283e-07
-8.90343e-07
8.65983e-07
-1.10075e-06
7.78437e-07
-1.28138e-06
6.71708e-07
-1.43002e-06
5.51036e-07
-1.54515e-06
4.19465e-07
-1.62554e-06
2.79229e-07
-1.66989e-06
1.3212e-07
-1.67686e-06
-2.02986e-08
-1.64312e-06
-1.78303e-07
-1.56646e-06
-3.38279e-07
-1.44404e-06
-4.98437e-07
-1.27342e-06
-6.55229e-07
-1.05367e-06
-8.02953e-07
-7.87549e-07
-9.31494e-07
-4.86873e-07
-1.01705e-06
-1.88608e-07
-9.86544e-07
-6.16631e-07
-2.20917e-07
7.69013e-07
-5.671e-07
1.22605e-06
-9.17997e-07
1.27018e-06
-1.23816e-06
1.18615e-06
-1.51803e-06
1.0583e-06
-1.75502e-06
9.08694e-07
-1.94887e-06
7.44893e-07
-2.10016e-06
5.70746e-07
-2.20926e-06
3.88338e-07
-2.27576e-06
1.98611e-07
-2.30028e-06
4.22778e-09
-2.27481e-06
-2.03773e-07
-2.19599e-06
-4.17101e-07
-2.0562e-06
-6.38226e-07
-1.8466e-06
-8.6483e-07
-1.5588e-06
-1.09075e-06
-1.189e-06
-1.3013e-06
-7.48694e-07
-1.45736e-06
-2.94095e-07
-1.44114e-06
-9.10726e-07
-3.2826e-07
1.09727e-06
-8.27413e-07
1.7252e-06
-1.31378e-06
1.75655e-06
-1.74063e-06
1.613e-06
-2.10129e-06
1.41896e-06
-2.39859e-06
1.206e-06
-2.63815e-06
9.84452e-07
-2.82601e-06
7.58602e-07
-2.96713e-06
5.29454e-07
-3.06424e-06
2.95726e-07
-3.11736e-06
5.73453e-08
-3.12216e-06
-1.9897e-07
-3.06907e-06
-4.7019e-07
-2.94279e-06
-7.64508e-07
-2.72123e-06
-1.08639e-06
-2.37679e-06
-1.43519e-06
-1.88247e-06
-1.79562e-06
-1.23259e-06
-2.10724e-06
-5.0286e-07
-2.17087e-06
-1.41359e-06
-5.31495e-07
1.62877e-06
-1.26891e-06
2.46262e-06
-1.93945e-06
2.42709e-06
-2.49095e-06
2.1645e-06
-2.92847e-06
1.85648e-06
-3.26951e-06
1.54704e-06
-3.53402e-06
1.24896e-06
-3.74034e-06
9.64919e-07
-3.90313e-06
6.92249e-07
-4.03207e-06
4.24662e-07
-4.13052e-06
1.55795e-07
-4.19827e-06
-1.31212e-07
-4.22565e-06
-4.42811e-07
-4.188e-06
-8.02161e-07
-4.04229e-06
-1.2321e-06
-3.7216e-06
-1.75589e-06
-3.13564e-06
-2.38158e-06
-2.20412e-06
-3.03876e-06
-9.7999e-07
-3.395e-06
-2.39358e-06
-1.10926e-06
2.73803e-06
-2.26281e-06
3.61616e-06
-3.08461e-06
3.24889e-06
-3.68167e-06
2.76156e-06
-4.09961e-06
2.27442e-06
-4.38411e-06
1.83154e-06
-4.57954e-06
1.4444e-06
-4.72373e-06
1.10911e-06
-4.84593e-06
8.14445e-07
-4.96691e-06
5.45645e-07
-5.09354e-06
2.82419e-07
-5.21518e-06
-9.56811e-09
-5.37203e-06
-2.85956e-07
-5.50939e-06
-6.64804e-07
-5.56679e-06
-1.1747e-06
-5.43478e-06
-1.8879e-06
-4.93619e-06
-2.88016e-06
-3.83901e-06
-4.13594e-06
-2.00113e-06
-5.23288e-06
-4.3947e-06
-2.66098e-06
5.39901e-06
-4.16927e-06
5.12446e-06
-4.71615e-06
3.79577e-06
-4.76153e-06
2.80694e-06
-4.56465e-06
2.07753e-06
-4.26684e-06
1.53373e-06
-3.95704e-06
1.1346e-06
-3.68621e-06
8.38274e-07
-3.47967e-06
6.07908e-07
-3.34901e-06
4.14978e-07
-3.30105e-06
2.34457e-07
-3.36619e-06
5.55775e-08
-3.47465e-06
-1.77495e-07
-3.64625e-06
-4.93202e-07
-3.85467e-06
-9.66288e-07
-4.04483e-06
-1.69773e-06
-4.11303e-06
-2.81197e-06
-3.81087e-06
-4.4381e-06
-2.53838e-06
-6.50537e-06
-6.93309e-06
5.39901e-06
1.05235e-05
1.43192e-05
1.71262e-05
1.92037e-05
2.07374e-05
2.1872e-05
2.27103e-05
2.33182e-05
2.37332e-05
2.39677e-05
2.40232e-05
2.38457e-05
2.33525e-05
2.23863e-05
2.06885e-05
1.78766e-05
1.34385e-05
6.93309e-06
)
;

boundaryField
{
    movingWall
    {
        type            calculated;
        value           uniform 0;
    }
    fixedWalls
    {
        type            calculated;
        value           uniform 0;
    }
    frontAndBack
    {
        type            empty;
        value           nonuniform 0();
    }
}


// ************************************************************************* //
