/*--------------------------------*- C++ -*----------------------------------*\
  =========                 |
  \\      /  F ield         | OpenFOAM: The Open Source CFD Toolbox
   \\    /   O peration     | Website:  https://openfoam.org
    \\  /    A nd           | Version:  7
     \\/     M anipulation  |
\*---------------------------------------------------------------------------*/
FoamFile
{
    version     2.0;
    format      ascii;
    class       volVectorField;
    location    "0.1";
    object      U;
}
// * * * * * * * * * * * * * * * * * * * * * * * * * * * * * * * * * * * * * //

dimensions      [0 1 -1 0 0 0 0];

internalField   nonuniform List<vector> 
400
(
(-1.37952e-05 2.89291e-05 0)
(-5.43506e-05 4.92527e-05 0)
(-0.000109467 5.24975e-05 0)
(-0.000164261 4.98975e-05 0)
(-0.000214503 4.50007e-05 0)
(-0.000258713 3.87057e-05 0)
(-0.000295693 3.13157e-05 0)
(-0.000324403 2.3051e-05 0)
(-0.00034404 1.41402e-05 0)
(-0.00035405 4.82912e-06 0)
(-0.000354147 -4.62448e-06 0)
(-0.000344321 -1.39577e-05 0)
(-0.000324835 -2.29104e-05 0)
(-0.000296224 -3.12321e-05 0)
(-0.00025928 -3.86878e-05 0)
(-0.000215037 -4.50498e-05 0)
(-0.000164697 -5.00054e-05 0)
(-0.00010975 -5.26432e-05 0)
(-5.44771e-05 -4.93958e-05 0)
(-1.3813e-05 -2.89885e-05 0)
(-1.92418e-05 0.000100358 0)
(-7.38113e-05 0.000167479 0)
(-0.000146259 0.000177804 0)
(-0.000218 0.000168937 0)
(-0.000283746 0.000152383 0)
(-0.000341622 0.000131081 0)
(-0.000390046 0.000106058 0)
(-0.000427649 7.80653e-05 0)
(-0.000453374 4.78836e-05 0)
(-0.000466495 1.63461e-05 0)
(-0.000466637 -1.56741e-05 0)
(-0.000453783 -4.72872e-05 0)
(-0.000428278 -7.76115e-05 0)
(-0.00039082 -0.000105797 0)
(-0.000342448 -0.000131043 0)
(-0.000284526 -0.000152569 0)
(-0.00021864 -0.000169315 0)
(-0.00014669 -0.000178297 0)
(-7.40089e-05 -0.000167943 0)
(-1.92863e-05 -0.000100552 0)
(-2.30443e-05 0.000192749 0)
(-8.86791e-05 0.000317732 0)
(-0.000175978 0.000336381 0)
(-0.000262361 0.000319466 0)
(-0.000341478 0.00028817 0)
(-0.000411121 0.000247909 0)
(-0.000469401 0.000200605 0)
(-0.00051468 0.000147684 0)
(-0.000545684 9.06184e-05 0)
(-0.00056154 3.09828e-05 0)
(-0.000561786 -2.95741e-05 0)
(-0.000546396 -8.93714e-05 0)
(-0.000515774 -0.000146742 0)
(-0.00047075 -0.000200077 0)
(-0.000412566 -0.000247855 0)
(-0.000342852 -0.000288595 0)
(-0.0002635 -0.000320302 0)
(-0.000176763 -0.000337466 0)
(-8.90569e-05 -0.000318761 0)
(-2.31383e-05 -0.000193224 0)
(-2.9232e-05 0.000305827 0)
(-0.000112478 0.000501947 0)
(-0.000223186 0.00053078 0)
(-0.000332736 0.000503947 0)
(-0.000433085 0.00045458 0)
(-0.000521441 0.00039112 0)
(-0.000595421 0.000316567 0)
(-0.000652944 0.000233154 0)
(-0.000692391 0.000143192 0)
(-0.000712643 4.91559e-05 0)
(-0.000713106 -4.63618e-05 0)
(-0.000693724 -0.000140714 0)
(-0.000654995 -0.000231272 0)
(-0.000597955 -0.000315494 0)
(-0.000524166 -0.000390975 0)
(-0.000435684 -0.000455373 0)
(-0.000334912 -0.000505552 0)
(-0.000224709 -0.000532899 0)
(-0.000113236 -0.000504017 0)
(-2.94269e-05 -0.000306866 0)
(-3.86517e-05 0.000452514 0)
(-0.000148548 0.000740705 0)
(-0.000294549 0.000782702 0)
(-0.000439019 0.000743043 0)
(-0.000571387 0.000670322 0)
(-0.00068799 0.000576879 0)
(-0.000785688 0.000467098 0)
(-0.000861738 0.000344247 0)
(-0.000913997 0.000211711 0)
(-0.000940971 7.31179e-05 0)
(-0.00094185 -6.77253e-05 0)
(-0.000916532 -0.000206924 0)
(-0.000865641 -0.000340602 0)
(-0.000790513 -0.000465003 0)
(-0.000693186 -0.000576565 0)
(-0.000576359 -0.000671808 0)
(-0.000443201 -0.0007461 0)
(-0.000297498 -0.000786783 0)
(-0.000150044 -0.000744789 0)
(-3.90435e-05 -0.000454712 0)
(-5.23192e-05 0.000648968 0)
(-0.000200784 0.0010599 0)
(-0.000397779 0.00111935 0)
(-0.00059269 0.00106258 0)
(-0.000771325 0.000958764 0)
(-0.000928772 0.000825397 0)
(-0.00106081 0.000668695 0)
(-0.00116374 0.000493285 0)
(-0.00123467 0.000303964 0)
(-0.00127153 0.00010588 0)
(-0.00127321 -9.55562e-05 0)
(-0.00123949 -0.000294793 0)
(-0.00117118 -0.000486289 0)
(-0.00107002 -0.000664653 0)
(-0.000938692 -0.00082475 0)
(-0.000780832 -0.000961553 0)
(-0.000600706 -0.00106839 0)
(-0.000403454 -0.00112716 0)
(-0.000203699 -0.00106784 0)
(-5.30891e-05 -0.00065348 0)
(-7.17051e-05 0.000916594 0)
(-0.000274762 0.00149387 0)
(-0.000543846 0.00157683 0)
(-0.000810051 0.00149686 0)
(-0.0010541 0.00135096 0)
(-0.00126936 0.00116358 0)
(-0.00145007 0.000943392 0)
(-0.00159122 0.000696822 0)
(-0.00168881 0.000430547 0)
(-0.00174001 0.000151736 0)
(-0.0017432 -0.000132057 0)
(-0.001698 -0.000413055 0)
(-0.00160538 -0.000683461 0)
(-0.00146761 -0.000935646 0)
(-0.00128828 -0.0011623 0)
(-0.00107226 -0.00135622 0)
(-0.000825384 -0.00150789 0)
(-0.000554727 -0.00159174 0)
(-0.000280401 -0.00150919 0)
(-7.32004e-05 -0.000925657 0)
(-9.8883e-05 0.0012844 0)
(-0.000378329 0.00208913 0)
(-0.000748173 0.00220399 0)
(-0.001114 0.00209229 0)
(-0.00144948 0.00188898 0)
(-0.00174561 0.00162798 0)
(-0.00199456 0.00132123 0)
(-0.00218946 0.000977602 0)
(-0.00232484 0.00060626 0)
(-0.00239674 0.000217055 0)
(-0.00240279 -0.000179604 0)
(-0.00234231 -0.00057295 0)
(-0.0022164 -0.000952124 0)
(-0.00202794 -0.00130641 0)
(-0.00178166 -0.00162544 0)
(-0.00148412 -0.00189892 0)
(-0.0011433 -0.00211324 0)
(-0.00076901 -0.00223243 0)
(-0.000389204 -0.0021185 0)
(-0.000101773 -0.00130233 0)
(-0.000136751 0.00179205 0)
(-0.000522427 0.00290911 0)
(-0.00103222 0.00306745 0)
(-0.00153632 0.0029121 0)
(-0.00199872 0.00263017 0)
(-0.00240718 0.00226849 0)
(-0.00275113 0.00184345 0)
(-0.00302121 0.00136716 0)
(-0.00320992 0.000852066 0)
(-0.00331175 0.000311542 0)
(-0.00332322 -0.000240262 0)
(-0.00324307 -0.000788612 0)
(-0.00307237 -0.00131852 0)
(-0.00281461 -0.00181501 0)
(-0.00247585 -0.00226339 0)
(-0.0020648 -0.00264885 0)
(-0.00159232 -0.00295183 0)
(-0.00107212 -0.00312157 0)
(-0.000543358 -0.00296528 0)
(-0.000142313 -0.00182712 0)
(-0.000189357 0.00249399 0)
(-0.000722289 0.00404083 0)
(-0.00142577 0.00425827 0)
(-0.00212096 0.00404263 0)
(-0.00275861 0.00365279 0)
(-0.00332224 0.00315331 0)
(-0.00379766 0.00256667 0)
(-0.00417232 0.00190927 0)
(-0.00443611 0.00119783 0)
(-0.00458144 0.000450222 0)
(-0.00460315 -0.000314664 0)
(-0.00449888 -0.001077 0)
(-0.00426931 -0.00181633 0)
(-0.00391822 -0.00251189 0)
(-0.00345295 -0.00314281 0)
(-0.00288472 -0.00368763 0)
(-0.00222811 -0.00411782 0)
(-0.00150228 -0.00436122 0)
(-0.000762543 -0.0041481 0)
(-0.000200035 -0.00256206 0)
(-0.000262425 0.00346543 0)
(-0.00099932 0.00560398 0)
(-0.0019704 0.00590128 0)
(-0.00292882 0.00560162 0)
(-0.00380724 0.00506313 0)
(-0.00458378 0.00437496 0)
(-0.00523983 0.00356799 0)
(-0.00575902 0.00266433 0)
(-0.00612811 0.00168608 0)
(-0.00633685 0.000656548 0)
(-0.00637779 -0.000399688 0)
(-0.00624655 -0.00145669 0)
(-0.00594236 -0.00248708 0)
(-0.00546839 -0.0034624 0)
(-0.00483248 -0.0043531 0)
(-0.00404813 -0.00512769 0)
(-0.00313426 -0.00574375 0)
(-0.0021175 -0.00609733 0)
(-0.00107687 -0.00580922 0)
(-0.000282938 -0.00359696 0)
(-0.000364262 0.00481107 0)
(-0.00138431 0.00776435 0)
(-0.00272521 0.00816776 0)
(-0.00404526 0.00774906 0)
(-0.00525244 0.0070044 0)
(-0.00631842 0.00605746 0)
(-0.00721983 0.00495099 0)
(-0.00793644 0.00371465 0)
(-0.00845192 0.00237707 0)
(-0.00875324 0.000967565 0)
(-0.00882991 -0.000483326 0)
(-0.008674 -0.00194337 0)
(-0.0082812 -0.0033772 0)
(-0.00765161 -0.00474683 0)
(-0.00679104 -0.00601084 0)
(-0.0057132 -0.00712252 0)
(-0.00444071 -0.00801723 0)
(-0.00300979 -0.00854197 0)
(-0.00153473 -0.0081585 0)
(-0.00040398 -0.00506508 0)
(-0.000507633 0.00667903 0)
(-0.00192363 0.0107541 0)
(-0.00377739 0.0112937 0)
(-0.00559307 0.010701 0)
(-0.00724507 0.00966617 0)
(-0.0086986 0.00836263 0)
(-0.00992685 0.00685036 0)
(-0.0109075 0.00516909 0)
(-0.0116229 0.00335468 0)
(-0.0120583 0.00144189 0)
(-0.0122004 -0.000534357 0)
(-0.0120351 -0.00253808 0)
(-0.0115503 -0.00452663 0)
(-0.010738 -0.0064521 0)
(-0.00959516 -0.00825815 0)
(-0.00812873 -0.00987564 0)
(-0.00635984 -0.0112034 0)
(-0.00433436 -0.0120089 0)
(-0.00221965 -0.0115152 0)
(-0.00058578 -0.00717136 0)
(-0.000714345 0.00928613 0)
(-0.00269335 0.0149062 0)
(-0.00526435 0.0156065 0)
(-0.00775747 0.0147451 0)
(-0.0100021 0.0132906 0)
(-0.0119608 0.0114899 0)
(-0.0136092 0.00942898 0)
(-0.0149292 0.00716089 0)
(-0.0159079 0.0047282 0)
(-0.016533 0.00216788 0)
(-0.0167917 -0.00048607 0)
(-0.0166606 -0.00320405 0)
(-0.0161117 -0.00594069 0)
(-0.0151193 -0.00864393 0)
(-0.013656 -0.0112435 0)
(-0.0117035 -0.01364 0)
(-0.00926211 -0.0156728 0)
(-0.00637669 -0.0169745 0)
(-0.00329207 -0.0163891 0)
(-0.000872874 -0.0102505 0)
(-0.00102807 0.0129709 0)
(-0.00383563 0.0207205 0)
(-0.00742626 0.0215683 0)
(-0.0108403 0.0202572 0)
(-0.0138518 0.0181679 0)
(-0.0164361 0.0156594 0)
(-0.0185885 0.0128569 0)
(-0.020312 0.0098299 0)
(-0.0216122 0.00662383 0)
(-0.0224906 0.00326795 0)
(-0.0229484 -0.000219453 0)
(-0.0229492 -0.0038226 0)
(-0.0224358 -0.00752438 0)
(-0.0213528 -0.0112891 0)
(-0.019617 -0.015049 0)
(-0.0171393 -0.0186776 0)
(-0.0138437 -0.0219262 0)
(-0.0097217 -0.0241916 0)
(-0.00511054 -0.0236682 0)
(-0.00137155 -0.0149175 0)
(-0.0015511 0.0183075 0)
(-0.00565561 0.028961 0)
(-0.0107346 0.0298122 0)
(-0.0153796 0.0276877 0)
(-0.0193219 0.0245886 0)
(-0.0226005 0.0210445 0)
(-0.0252726 0.0172397 0)
(-0.0273989 0.0132616 0)
(-0.0290355 0.00914761 0)
(-0.0302236 0.00489877 0)
(-0.0309767 0.000491033 0)
(-0.0312749 -0.00410671 0)
(-0.0310493 -0.00894649 0)
(-0.0301763 -0.0140682 0)
(-0.0284696 -0.0194697 0)
(-0.0256781 -0.0250536 0)
(-0.0215036 -0.030491 0)
(-0.0157013 -0.0347939 0)
(-0.0086118 -0.0349647 0)
(-0.00238975 -0.0224328 0)
(-0.00260653 0.0270899 0)
(-0.00891175 0.0415872 0)
(-0.0161572 0.0415299 0)
(-0.0223595 0.037605 0)
(-0.0272809 0.0327284 0)
(-0.031133 0.0276 0)
(-0.0341252 0.0224404 0)
(-0.0364509 0.0173289 0)
(-0.0382764 0.0122625 0)
(-0.039724 0.0071763 0)
(-0.0408582 0.00196167 0)
(-0.0416985 -0.00351595 0)
(-0.0421987 -0.00938882 0)
(-0.042193 -0.0159272 0)
(-0.0413486 -0.0233354 0)
(-0.0391191 -0.0317396 0)
(-0.0346802 -0.0409478 0)
(-0.0270616 -0.0496164 0)
(-0.0161675 -0.0527404 0)
(-0.00481662 -0.0354472 0)
(-0.00573458 0.0362249 0)
(-0.017078 0.0560481 0)
(-0.0271906 0.0558894 0)
(-0.0342554 0.0497681 0)
(-0.0391938 0.0422944 0)
(-0.0426009 0.0348302 0)
(-0.0449225 0.0278484 0)
(-0.0465659 0.0214606 0)
(-0.0478647 0.0155883 0)
(-0.0490595 0.0100513 0)
(-0.0502833 0.00460141 0)
(-0.0515358 -0.00108431 0)
(-0.0529656 -0.00748456 0)
(-0.0545067 -0.0150583 0)
(-0.0556092 -0.0245384 0)
(-0.0554232 -0.0368743 0)
(-0.0524329 -0.0528933 0)
(-0.0445231 -0.0717467 0)
(-0.0303643 -0.0856983 0)
(-0.00969192 -0.0660215 0)
(-0.0178242 0.0946301 0)
(-0.036817 0.0995979 0)
(-0.0459325 0.0756045 0)
(-0.0478618 0.0574652 0)
(-0.046659 0.0441071 0)
(-0.0440342 0.0338426 0)
(-0.0409558 0.0258631 0)
(-0.0380519 0.0194928 0)
(-0.0356772 0.0141694 0)
(-0.0340094 0.00943214 0)
(-0.0331381 0.00482753 0)
(-0.0332842 -0.000192916 0)
(-0.0342042 -0.00639356 0)
(-0.0357152 -0.0148186 0)
(-0.0377745 -0.0271022 0)
(-0.0399241 -0.0455049 0)
(-0.0411315 -0.0724385 0)
(-0.039626 -0.108308 0)
(-0.0344547 -0.14363 0)
(-0.00643494 -0.133543 0)
(0.0696361 0.0771609 0)
(0.0721092 0.0800558 0)
(0.119717 0.0633901 0)
(0.157882 0.0477413 0)
(0.183145 0.0352365 0)
(0.200686 0.0257064 0)
(0.213678 0.0187107 0)
(0.22339 0.0136687 0)
(0.230507 0.00999859 0)
(0.235519 0.00722371 0)
(0.238695 0.00496602 0)
(0.240048 0.00288171 0)
(0.239387 0.000746245 0)
(0.236014 -0.00194589 0)
(0.228799 -0.00588094 0)
(0.215938 -0.0121184 0)
(0.194303 -0.0223052 0)
(0.161688 -0.0399884 0)
(0.0960679 -0.0715091 0)
(0.0815273 -0.0847761 0)
)
;

boundaryField
{
    movingWall
    {
        type            fixedValue;
        value           uniform (1 0 0);
    }
    fixedWalls
    {
        type            noSlip;
    }
    frontAndBack
    {
        type            empty;
    }
}


// ************************************************************************* //
