/*--------------------------------*- C++ -*----------------------------------*\
  =========                 |
  \\      /  F ield         | OpenFOAM: The Open Source CFD Toolbox
   \\    /   O peration     | Website:  https://openfoam.org
    \\  /    A nd           | Version:  7
     \\/     M anipulation  |
\*---------------------------------------------------------------------------*/
FoamFile
{
    version     2.0;
    format      ascii;
    class       volScalarField;
    location    "0.4";
    object      p;
}
// * * * * * * * * * * * * * * * * * * * * * * * * * * * * * * * * * * * * * //

dimensions      [0 2 -2 0 0 0 0];

internalField   nonuniform List<scalar> 
400
(
-2.37789e-08
-0.000506364
-0.00102902
-0.0013767
-0.00145229
-0.00121694
-0.000661739
0.000206879
0.00136672
0.00277045
0.00433483
0.00593441
0.00740887
0.00858369
0.00930785
0.00949943
0.00918753
0.00853065
0.00776193
0.00727495
0.000493567
-3.10073e-05
-0.000429281
-0.00064186
-0.000641743
-0.000403369
8.3432e-05
0.000817161
0.00178328
0.00294592
0.00423891
0.00556411
0.0067896
0.00777415
0.00839566
0.00858893
0.00837796
0.00788437
0.00728858
0.00679181
0.00103878
0.00032472
-9.68406e-05
-0.000275716
-0.000258976
-4.06498e-05
0.000385628
0.00102244
0.00186549
0.00289308
0.00405485
0.00526554
0.00640512
0.00733607
0.00793233
0.00811842
0.00790461
0.00739393
0.00672104
0.00601085
0.00141009
0.000448369
-6.51414e-05
-0.00026855
-0.000275748
-9.93703e-05
0.00026328
0.000820401
0.00158077
0.00253908
0.00366004
0.00487085
0.006048
0.00703965
0.00769229
0.00789722
0.00763824
0.00700646
0.00611491
0.00506924
0.00142585
0.000218773
-0.000403308
-0.000656206
-0.000712692
-0.000600127
-0.0003164
0.000155557
0.000841334
0.00175607
0.00288216
0.00417103
0.00548357
0.00664545
0.00745772
0.00775424
0.00747109
0.00668078
0.00548779
0.00400934
0.000933732
-0.000500693
-0.00123478
-0.00155469
-0.00168521
-0.00166474
-0.0014885
-0.0011269
-0.00053266
0.000339942
0.00151012
0.00292117
0.00446478
0.0059311
0.00705468
0.00757921
0.00735645
0.00641608
0.00485104
0.00281413
-0.000196761
-0.00183541
-0.0026812
-0.00308565
-0.00332061
-0.00343365
-0.0034153
-0.00322029
-0.00277375
-0.00199181
-0.000811962
0.000760402
0.00262744
0.00455944
0.00621152
0.00719455
0.00721562
0.00620667
0.00421629
0.00144694
-0.0020792
-0.00389585
-0.00485212
-0.00536134
-0.00573985
-0.00604515
-0.00626374
-0.00633349
-0.00614664
-0.00556855
-0.00446983
-0.0027781
-0.000536569
0.0020318
0.00450066
0.00630032
0.0069029
0.00603781
0.00362042
-0.000106025
-0.00480747
-0.00677419
-0.00783872
-0.00847388
-0.00904098
-0.00961203
-0.010174
-0.0106505
-0.010899
-0.010722
-0.00989607
-0.00822841
-0.00564633
-0.00230591
0.00131568
0.00443421
0.00617161
0.0058809
0.0031569
-0.00178372
-0.00844879
-0.0105382
-0.0117029
-0.0124757
-0.0132688
-0.0141785
-0.0152014
-0.0162551
-0.0171652
-0.0176647
-0.0174113
-0.0160427
-0.0132939
-0.00915498
-0.00406931
0.000979997
0.00465594
0.00568949
0.00301743
-0.00336875
-0.0130391
-0.0152286
-0.0164673
-0.0173569
-0.0183778
-0.0196669
-0.0212445
-0.0230344
-0.0248401
-0.026327
-0.0270198
-0.0263469
-0.0237688
-0.01899
-0.0122711
-0.00468459
0.00193907
0.00543299
0.00355854
-0.00434527
-0.0185899
-0.0208664
-0.0221108
-0.0230255
-0.0241975
-0.0258287
-0.0279798
-0.0305947
-0.0334675
-0.0362054
-0.0382023
-0.0386603
-0.0367026
-0.0316422
-0.0233685
-0.0128206
-0.0021976
0.00523755
0.00542354
-0.0036541
-0.025122
-0.0274803
-0.0285753
-0.0292953
-0.0304103
-0.03222
-0.0348387
-0.0382384
-0.0422119
-0.0463185
-0.0498334
-0.0517401
-0.050818
-0.0459224
-0.0364079
-0.0227892
-0.0073092
0.00570537
0.00978144
0.000698969
-0.0327543
-0.0351645
-0.035782
-0.0358818
-0.036552
-0.0382206
-0.0410542
-0.0450449
-0.0499764
-0.0553583
-0.0603569
-0.0637607
-0.0640382
-0.059595
-0.0491769
-0.0326262
-0.0117766
0.00836573
0.0187261
0.0121548
-0.0419105
-0.0441805
-0.0436458
-0.0424004
-0.0420364
-0.0431042
-0.0457863
-0.0500574
-0.0556592
-0.0620253
-0.0682054
-0.0728106
-0.0740517
-0.0699032
-0.0585805
-0.0391519
-0.0126415
0.0160044
0.0356553
0.0359091
-0.0537859
-0.0551256
-0.0520597
-0.0483509
-0.0462012
-0.0461487
-0.0482924
-0.0525123
-0.0584493
-0.0654014
-0.0722712
-0.0774787
-0.0789861
-0.0744399
-0.0615708
-0.0387613
-0.00606555
0.0326726
0.0652677
0.0785676
-0.0714654
-0.0692198
-0.0609199
-0.0531988
-0.0484553
-0.0468199
-0.0481369
-0.0520697
-0.0580511
-0.0651956
-0.0722027
-0.0772722
-0.0781098
-0.0720211
-0.0562737
-0.0286699
0.011621
0.0632291
0.113482
0.149214
-0.103432
-0.0884516
-0.0700615
-0.0564271
-0.0483408
-0.0448154
-0.04523
-0.0488302
-0.054728
-0.0617884
-0.0684898
-0.0728079
-0.0721858
-0.0635316
-0.0435809
-0.00915873
0.0420767
0.109915
0.187853
0.26818
-0.175928
-0.112798
-0.0742734
-0.0535369
-0.0424965
-0.0378679
-0.0381465
-0.0420242
-0.0482321
-0.0554172
-0.0619248
-0.0656192
-0.0638034
-0.0529351
-0.0293561
0.0116144
0.075287
0.167333
0.294993
0.469318
-0.3428
-0.134257
-0.055192
-0.0325249
-0.0238294
-0.0213564
-0.02381
-0.029675
-0.0374633
-0.0458017
-0.0531032
-0.0573163
-0.0558704
-0.0457203
-0.0220973
0.020441
0.0909597
0.207559
0.405414
0.73475
)
;

boundaryField
{
    movingWall
    {
        type            zeroGradient;
    }
    fixedWalls
    {
        type            zeroGradient;
    }
    frontAndBack
    {
        type            empty;
    }
}


// ************************************************************************* //
