/*--------------------------------*- C++ -*----------------------------------*\
  =========                 |
  \\      /  F ield         | OpenFOAM: The Open Source CFD Toolbox
   \\    /   O peration     | Website:  https://openfoam.org
    \\  /    A nd           | Version:  7
     \\/     M anipulation  |
\*---------------------------------------------------------------------------*/
FoamFile
{
    version     2.0;
    format      ascii;
    class       surfaceScalarField;
    location    "0.4";
    object      phi;
}
// * * * * * * * * * * * * * * * * * * * * * * * * * * * * * * * * * * * * * //

dimensions      [0 3 -1 0 0 0 0];

internalField   nonuniform List<scalar> 
760
(
6.84212e-09
-6.84143e-09
-3.05873e-08
3.74294e-08
-1.102e-07
7.96121e-08
-2.16577e-07
1.06377e-07
-3.35744e-07
1.19166e-07
-4.56561e-07
1.20817e-07
-5.69694e-07
1.13134e-07
-6.6639e-07
9.66962e-08
-7.3776e-07
7.13703e-08
-7.74997e-07
3.7237e-08
-7.70503e-07
-4.49323e-09
-7.19976e-07
-5.05273e-08
-6.24609e-07
-9.53668e-08
-4.93016e-07
-1.31593e-07
-3.41647e-07
-1.51368e-07
-1.93097e-07
-1.4855e-07
-7.19616e-08
-1.21136e-07
1.42992e-09
-7.33915e-08
2.02421e-08
-1.88122e-08
2.02418e-08
-3.83643e-08
3.15232e-08
-1.72736e-07
1.718e-07
-3.88048e-07
2.94924e-07
-6.56882e-07
3.75211e-07
-9.51504e-07
4.13789e-07
-1.24686e-06
4.16174e-07
-1.52024e-06
3.86515e-07
-1.75013e-06
3.26582e-07
-1.91567e-06
2.36915e-07
-1.99762e-06
1.1919e-07
-1.98102e-06
-2.10963e-08
-1.85834e-06
-1.73209e-07
-1.6344e-06
-3.19303e-07
-1.32885e-06
-4.37144e-07
-9.76681e-07
-5.03536e-07
-6.24561e-07
-5.0067e-07
-3.22373e-07
-4.23323e-07
-1.1109e-07
-2.84675e-07
-1.06747e-08
-1.19228e-07
9.56692e-09
-8.98966e-08
1.21419e-07
-3.24751e-07
4.06654e-07
-6.66436e-07
6.36608e-07
-1.07554e-06
7.84313e-07
-1.51487e-06
8.53117e-07
-1.95053e-06
8.51838e-07
-2.35114e-06
7.87125e-07
-2.68665e-06
6.62091e-07
-2.92813e-06
4.78392e-07
-3.04921e-06
2.40276e-07
-3.02937e-06
-4.09379e-08
-2.85832e-06
-3.44258e-07
-2.54154e-06
-6.36089e-07
-2.10408e-06
-8.74599e-07
-1.59176e-06
-1.01586e-06
-1.06722e-06
-1.02521e-06
-5.99751e-07
-8.9079e-07
-2.49759e-07
-6.34668e-07
-5.15437e-08
-3.17443e-07
-4.19767e-08
-1.36485e-07
2.57904e-07
-4.66681e-07
7.3685e-07
-9.27079e-07
1.09701e-06
-1.46444e-06
1.32168e-06
-2.03326e-06
1.42194e-06
-2.5936e-06
1.41217e-06
-3.10863e-06
1.30216e-06
-3.54281e-06
1.09627e-06
-3.86133e-06
7.96912e-07
-4.03165e-06
4.10599e-07
-4.02726e-06
-4.53274e-08
-3.83181e-06
-5.39705e-07
-3.44721e-06
-1.0207e-06
-2.89845e-06
-1.42336e-06
-2.23729e-06
-1.67702e-06
-1.54013e-06
-1.72237e-06
-8.975e-07
-1.53342e-06
-3.95142e-07
-1.13703e-06
-9.13598e-08
-6.21225e-07
-1.33336e-07
-1.77898e-07
4.35802e-07
-5.96094e-07
1.15505e-06
-1.1671e-06
1.66801e-06
-1.82397e-06
1.97855e-06
-2.51389e-06
2.11186e-06
-3.19279e-06
2.09108e-06
-3.8208e-06
1.93017e-06
-4.35896e-06
1.63443e-06
-4.76791e-06
1.20586e-06
-5.00852e-06
6.51207e-07
-5.04715e-06
-6.69003e-09
-4.85608e-06
-7.30773e-07
-4.42883e-06
-1.44796e-06
-3.78382e-06
-2.06837e-06
-2.97389e-06
-2.48694e-06
-2.08816e-06
-2.6081e-06
-1.24322e-06
-2.37836e-06
-5.60374e-07
-1.81988e-06
-1.33418e-07
-1.04818e-06
-2.66755e-07
-2.14809e-07
6.5061e-07
-7.13003e-07
1.65324e-06
-1.38581e-06
2.34082e-06
-2.15399e-06
2.74673e-06
-2.95879e-06
2.91666e-06
-3.75385e-06
2.88614e-06
-4.49828e-06
2.67459e-06
-5.15159e-06
2.28774e-06
-5.67093e-06
1.72519e-06
-6.01104e-06
9.91322e-07
-6.12517e-06
1.07438e-07
-5.97611e-06
-8.79832e-07
-5.53866e-06
-1.88541e-06
-4.81761e-06
-2.78942e-06
-3.8598e-06
-3.44475e-06
-2.76386e-06
-3.70404e-06
-1.67675e-06
-3.46546e-06
-7.68497e-07
-2.72813e-06
-1.85511e-07
-1.63117e-06
-4.52266e-07
-2.47292e-07
8.97902e-07
-8.16588e-07
2.22254e-06
-1.58076e-06
3.10499e-06
-2.45012e-06
3.61608e-06
-3.36165e-06
3.82819e-06
-4.26858e-06
3.79306e-06
-5.13108e-06
3.53709e-06
-5.90917e-06
3.06583e-06
-6.55808e-06
2.37411e-06
-7.02635e-06
1.45959e-06
-7.25677e-06
3.37854e-07
-7.19337e-06
-9.43225e-07
-6.78981e-06
-2.28897e-06
-6.02735e-06
-3.55187e-06
-4.93589e-06
-4.53622e-06
-3.61475e-06
-5.02518e-06
-2.24096e-06
-4.83925e-06
-1.04704e-06
-3.92204e-06
-2.57136e-07
-2.42108e-06
-7.09402e-07
-2.74778e-07
1.17268e-06
-9.04615e-07
2.85237e-06
-1.74668e-06
3.94705e-06
-2.70255e-06
4.57195e-06
-3.70659e-06
4.83224e-06
-4.71349e-06
4.79996e-06
-5.68678e-06
4.51038e-06
-6.58953e-06
3.96859e-06
-7.37772e-06
3.1623e-06
-7.99623e-06
2.0781e-06
-8.37817e-06
7.1979e-07
-8.44911e-06
-8.72288e-07
-8.13662e-06
-2.60145e-06
-7.38938e-06
-4.29911e-06
-6.20556e-06
-5.72005e-06
-4.66804e-06
-6.5627e-06
-2.9733e-06
-6.53399e-06
-1.4253e-06
-5.47004e-06
-3.59301e-07
-3.48708e-06
-1.0687e-06
-2.96438e-07
1.46912e-06
-9.74187e-07
3.53012e-06
-1.87653e-06
4.8494e-06
-2.89738e-06
5.5928e-06
-3.96971e-06
5.90457e-06
-5.05147e-06
5.88171e-06
-6.11191e-06
5.57082e-06
-7.12035e-06
4.97703e-06
-8.0375e-06
4.07944e-06
-8.80934e-06
2.84994e-06
-9.36395e-06
1.2744e-06
-9.61249e-06
-6.23749e-07
-9.45658e-06
-2.75736e-06
-8.80572e-06
-4.94998e-06
-7.60994e-06
-6.91583e-06
-5.90954e-06
-8.2631e-06
-3.89352e-06
-8.55001e-06
-1.9311e-06
-7.43246e-06
-5.05023e-07
-4.91316e-06
-1.57373e-06
-3.12047e-07
1.78116e-06
-1.02377e-06
4.24185e-06
-1.96454e-06
5.79017e-06
-3.0204e-06
6.64867e-06
-4.12376e-06
7.00793e-06
-5.23738e-06
6.99533e-06
-6.33872e-06
6.67217e-06
-7.40692e-06
6.04524e-06
-8.41259e-06
5.08511e-06
-9.30986e-06
3.74721e-06
-1.00305e-05
1.995e-06
-1.04803e-05
-1.7391e-07
-1.05423e-05
-2.69531e-06
-1.0087e-05
-5.40529e-06
-9.00332e-06
-7.99955e-06
-7.2575e-06
-1.00089e-05
-4.98485e-06
-1.08227e-05
-2.58446e-06
-9.83284e-06
-7.09986e-07
-6.78764e-06
-2.28371e-06
-3.23414e-07
2.10458e-06
-1.05651e-06
4.97495e-06
-2.01095e-06
6.74461e-06
-3.06325e-06
7.70097e-06
-4.14584e-06
8.09052e-06
-5.2281e-06
8.07759e-06
-6.29821e-06
7.74227e-06
-7.34885e-06
7.09587e-06
-8.36623e-06
6.10249e-06
-9.32104e-06
4.70202e-06
-1.01602e-05
2.83418e-06
-1.0799e-05
4.64878e-07
-1.11163e-05
-2.378e-06
-1.09548e-05
-5.56681e-06
-1.01402e-05
-8.81415e-06
-8.53753e-06
-1.16116e-05
-6.16796e-06
-1.31922e-05
-3.38454e-06
-1.26163e-05
-9.92347e-07
-9.17983e-06
-3.27606e-06
-3.36567e-07
2.44115e-06
-1.08484e-06
5.72322e-06
-2.02826e-06
7.68802e-06
-3.03089e-06
8.7036e-06
-4.02688e-06
9.08651e-06
-4.99511e-06
9.04582e-06
-5.93749e-06
8.68464e-06
-6.86379e-06
8.02218e-06
-7.78101e-06
7.01971e-06
-8.68432e-06
5.60534e-06
-9.54782e-06
3.69768e-06
-1.03134e-05
1.23043e-06
-1.08765e-05
-1.81485e-06
-1.10759e-05
-5.36742e-06
-1.06898e-05
-9.20027e-06
-9.47288e-06
-1.28285e-05
-7.27451e-06
-1.53906e-05
-4.28748e-06
-1.56033e-05
-1.36965e-06
-1.20977e-05
-4.64571e-06
-3.65225e-07
2.80637e-06
-1.13651e-06
6.4945e-06
-2.04765e-06
8.59916e-06
-2.94794e-06
9.6039e-06
-3.77879e-06
9.91736e-06
-4.5344e-06
9.80143e-06
-5.23461e-06
9.38486e-06
-5.90956e-06
8.69713e-06
-6.59043e-06
7.70059e-06
-7.30216e-06
6.31707e-06
-8.05482e-06
4.45034e-06
-8.83144e-06
2.00705e-06
-9.56773e-06
-1.07856e-06
-1.01308e-05
-4.80437e-06
-1.0288e-05
-9.04307e-06
-9.70654e-06
-1.34099e-05
-8.03463e-06
-1.70625e-05
-5.17791e-06
-1.846e-05
-1.84897e-06
-1.54266e-05
-6.49468e-06
-4.36663e-07
3.24303e-06
-1.26182e-06
7.31965e-06
-2.12295e-06
9.46029e-06
-2.85856e-06
1.03395e-05
-3.43176e-06
1.04906e-05
-3.86327e-06
1.02329e-05
-4.19723e-06
9.71881e-06
-4.48693e-06
8.98683e-06
-4.78873e-06
8.00239e-06
-5.15787e-06
6.6862e-06
-5.64281e-06
4.93529e-06
-6.27522e-06
2.63946e-06
-7.04877e-06
-3.05012e-07
-7.89243e-06
-3.96071e-06
-8.61534e-06
-8.32016e-06
-8.85797e-06
-1.31673e-05
-8.09227e-06
-1.78282e-05
-5.84369e-06
-2.07086e-05
-2.40503e-06
-1.88653e-05
-8.89971e-06
-6.01653e-07
3.84469e-06
-1.53991e-06
8.25791e-06
-2.32357e-06
1.0244e-05
-2.80621e-06
1.08221e-05
-3.00421e-06
1.06886e-05
-2.98355e-06
1.02123e-05
-2.82129e-06
9.55655e-06
-2.59591e-06
8.76146e-06
-2.38701e-06
7.79349e-06
-2.2755e-06
6.57469e-06
-2.34298e-06
5.00277e-06
-2.66606e-06
2.96254e-06
-3.3047e-06
3.33629e-07
-4.26699e-06
-2.99842e-06
-5.46109e-06
-7.12605e-06
-6.59053e-06
-1.20379e-05
-7.04546e-06
-1.73733e-05
-5.96284e-06
-2.17912e-05
-2.94214e-06
-2.1886e-05
-1.18419e-05
-9.47745e-07
4.79243e-06
-2.06914e-06
9.37931e-06
-2.68561e-06
1.08604e-05
-2.75273e-06
1.08893e-05
-2.40002e-06
1.03359e-05
-1.76454e-06
9.57679e-06
-9.64725e-07
8.75673e-06
-1.03609e-07
7.90034e-06
7.23193e-07
6.96669e-06
1.41819e-06
5.87969e-06
1.87821e-06
4.54275e-06
1.99347e-06
2.84728e-06
1.65166e-06
6.75438e-07
7.58832e-07
-2.1056e-06
-7.18821e-07
-5.6484e-06
-2.64256e-06
-1.01141e-05
-4.48928e-06
-1.55266e-05
-5.0998e-06
-2.11807e-05
-3.24816e-06
-2.37376e-05
-1.509e-05
-1.59847e-06
6.3909e-06
-2.86493e-06
1.06458e-05
-3.00736e-06
1.10028e-05
-2.31237e-06
1.01943e-05
-1.11665e-06
9.14014e-06
3.53124e-07
8.10702e-06
1.94161e-06
7.16824e-06
3.53467e-06
6.30729e-06
5.03509e-06
5.46627e-06
6.34637e-06
4.56842e-06
7.3613e-06
3.52781e-06
7.9558e-06
2.25279e-06
7.98522e-06
6.46015e-07
7.29243e-06
-1.4128e-06
5.72449e-06
-4.08046e-06
3.22267e-06
-7.6123e-06
8.21203e-08
-1.2386e-05
-2.69335e-06
-1.84052e-05
-2.97324e-06
-2.34577e-05
-1.80632e-05
-2.60884e-06
8.99974e-06
-3.33186e-06
1.13688e-05
-2.11934e-06
9.79033e-06
-4.32308e-09
8.07926e-06
2.43944e-06
6.69638e-06
4.94519e-06
5.60126e-06
7.3834e-06
4.73004e-06
9.67495e-06
4.01574e-06
1.17563e-05
3.38496e-06
1.35583e-05
2.76639e-06
1.49929e-05
2.0932e-06
1.59438e-05
1.30186e-06
1.62594e-05
3.30435e-07
1.57586e-05
-9.12033e-07
1.42036e-05
-2.52545e-06
1.13349e-05
-4.74357e-06
7.02953e-06
-8.0807e-06
2.01484e-06
-1.33905e-05
-1.31207e-06
-2.01308e-05
-1.93753e-05
-2.60264e-06
1.16024e-05
-5.13507e-08
8.8175e-06
4.19009e-06
5.54889e-06
8.28557e-06
3.98378e-06
1.19648e-05
3.01713e-06
1.52341e-05
2.332e-06
1.81216e-05
1.84254e-06
2.06547e-05
1.48267e-06
2.28455e-05
1.19414e-06
2.46796e-05
9.32224e-07
2.61104e-05
6.62393e-07
2.70543e-05
3.58049e-07
2.73753e-05
9.35058e-09
2.69325e-05
-4.69196e-07
2.54556e-05
-1.04854e-06
2.25853e-05
-1.87326e-06
1.78051e-05
-3.30053e-06
1.0817e-05
-6.40242e-06
3.13906e-06
-1.24528e-05
-1.62363e-05
1.16024e-05
2.04199e-05
2.59688e-05
2.99525e-05
3.29697e-05
3.53017e-05
3.71442e-05
3.86269e-05
3.9821e-05
4.07532e-05
4.14156e-05
4.17737e-05
4.1783e-05
4.13138e-05
4.02653e-05
3.83921e-05
3.50915e-05
2.86891e-05
1.62363e-05
)
;

boundaryField
{
    movingWall
    {
        type            calculated;
        value           uniform 0;
    }
    fixedWalls
    {
        type            calculated;
        value           uniform 0;
    }
    frontAndBack
    {
        type            empty;
        value           nonuniform 0();
    }
}


// ************************************************************************* //
