/*--------------------------------*- C++ -*----------------------------------*\
  =========                 |
  \\      /  F ield         | OpenFOAM: The Open Source CFD Toolbox
   \\    /   O peration     | Website:  https://openfoam.org
    \\  /    A nd           | Version:  7
     \\/     M anipulation  |
\*---------------------------------------------------------------------------*/
FoamFile
{
    version     2.0;
    format      ascii;
    class       volVectorField;
    location    "0.4";
    object      U;
}
// * * * * * * * * * * * * * * * * * * * * * * * * * * * * * * * * * * * * * //

dimensions      [0 1 -1 0 0 0 0];

internalField   nonuniform List<vector> 
400
(
(0.00017479 -0.000176581 0)
(-4.41113e-05 0.000145998 0)
(-0.00126816 0.000487843 0)
(-0.00318764 0.000701724 0)
(-0.00549465 0.000804099 0)
(-0.00793939 0.000825201 0)
(-0.0103197 0.000782974 0)
(-0.0124569 0.000682003 0)
(-0.0141751 0.000518638 0)
(-0.015294 0.000289375 0)
(-0.0156437 -4.02171e-07 0)
(-0.015097 -0.000330347 0)
(-0.0136155 -0.000657893 0)
(-0.0112939 -0.000924904 0)
(-0.00838586 -0.00106759 0)
(-0.00529408 -0.00103429 0)
(-0.00250746 -0.000806041 0)
(-0.000482445 -0.000416277 0)
(0.000441247 1.99957e-05 0)
(0.000296628 0.000280159 0)
(-0.000152562 3.42808e-05 0)
(-0.00167204 0.00161904 0)
(-0.00527401 0.00310994 0)
(-0.0102647 0.00408329 0)
(-0.0160264 0.00455754 0)
(-0.0220399 0.00461497 0)
(-0.0278334 0.00431375 0)
(-0.032967 0.00367519 0)
(-0.0370156 0.00269955 0)
(-0.0395701 0.00139708 0)
(-0.040274 -0.000178188 0)
(-0.0388851 -0.00190267 0)
(-0.035361 -0.00357005 0)
(-0.0299393 -0.00491262 0)
(-0.0231739 -0.0056496 0)
(-0.0159077 -0.00556451 0)
(-0.00914941 -0.00459324 0)
(-0.0038559 -0.00289819 0)
(-0.000708642 -0.000931225 0)
(0.000132946 0.000465916 0)
(-0.000561219 0.00133027 0)
(-0.00351192 0.00532163 0)
(-0.0094474 0.00870748 0)
(-0.0171809 0.0109188 0)
(-0.0258444 0.0119762 0)
(-0.0347542 0.0120134 0)
(-0.0432684 0.0111351 0)
(-0.0507742 0.00938912 0)
(-0.056678 0.00679672 0)
(-0.0604156 0.00341464 0)
(-0.0615 -0.000597035 0)
(-0.0596003 -0.00492415 0)
(-0.0546473 -0.00907576 0)
(-0.0469359 -0.0124327 0)
(-0.0371803 -0.0143536 0)
(-0.026496 -0.0143451 0)
(-0.0162561 -0.01226 0)
(-0.0078167 -0.008456 0)
(-0.00225024 -0.00387207 0)
(-0.000148277 -0.000142021 0)
(-0.000921181 0.00361501 0)
(-0.00521414 0.011019 0)
(-0.0133681 0.0167993 0)
(-0.0236447 0.0204756 0)
(-0.0349252 0.0221609 0)
(-0.046407 0.0220724 0)
(-0.0573418 0.0203697 0)
(-0.0670086 0.0171283 0)
(-0.0747 0.0123926 0)
(-0.0797308 0.00627419 0)
(-0.0814904 -0.000941472 0)
(-0.079523 -0.00871896 0)
(-0.0736555 -0.0162243 0)
(-0.0641376 -0.0224045 0)
(-0.0517326 -0.0261469 0)
(-0.0377485 -0.026558 0)
(-0.0239125 -0.0233051 0)
(-0.012057 -0.0169052 0)
(-0.0038137 -0.00883648 0)
(-0.000391349 -0.00155762 0)
(-0.00123173 0.00677608 0)
(-0.00674608 0.0185392 0)
(-0.0169651 0.0271571 0)
(-0.0296121 0.032463 0)
(-0.0433297 0.0347879 0)
(-0.0572269 0.0344896 0)
(-0.070495 0.0317999 0)
(-0.0823524 0.0268175 0)
(-0.0920149 0.0195943 0)
(-0.0986895 0.0102738 0)
(-0.101623 -0.000754333 0)
(-0.100174 -0.0127203 0)
(-0.093962 -0.0244522 0)
(-0.0830679 -0.0343935 0)
(-0.0681817 -0.040827 0)
(-0.050734 -0.0422695 0)
(-0.0328372 -0.0380031 0)
(-0.0169561 -0.0285756 0)
(-0.00553111 -0.0160196 0)
(-0.000616302 -0.00376723 0)
(-0.00150326 0.0107204 0)
(-0.00811743 0.0277401 0)
(-0.0202271 0.0396384 0)
(-0.0350668 0.0467541 0)
(-0.0510692 0.0497652 0)
(-0.0672854 0.0492403 0)
(-0.0828867 0.0455071 0)
(-0.0970733 0.0386791 0)
(-0.109018 0.0287835 0)
(-0.117831 0.0159489 0)
(-0.122573 0.000612541 0)
(-0.122369 -0.0162884 0)
(-0.116544 -0.0332418 0)
(-0.104837 -0.0481336 0)
(-0.0877082 -0.0584835 0)
(-0.0665918 -0.0619454 0)
(-0.0439806 -0.0570831 0)
(-0.0231465 -0.0442163 0)
(-0.0076876 -0.0259149 0)
(-0.000884811 -0.00688453 0)
(-0.00173927 0.0153603 0)
(-0.00932507 0.038458 0)
(-0.0231228 0.0540623 0)
(-0.0399399 0.0631847 0)
(-0.0580353 0.0669763 0)
(-0.0764364 0.0662911 0)
(-0.0943343 0.0615803 0)
(-0.110954 0.0529601 0)
(-0.125464 0.0403883 0)
(-0.136898 0.0239069 0)
(-0.144152 0.00390756 0)
(-0.146058 -0.0186184 0)
(-0.141534 -0.0418608 0)
(-0.129845 -0.0631349 0)
(-0.111009 -0.0790424 0)
(-0.0862456 -0.0860311 0)
(-0.0583021 -0.0814458 0)
(-0.0313661 -0.0649001 0)
(-0.0106406 -0.0393547 0)
(-0.0012744 -0.0111989 0)
(-0.00193663 0.0206026 0)
(-0.0103469 0.0505009 0)
(-0.0255841 0.0701944 0)
(-0.0440877 0.0815163 0)
(-0.0639786 0.0862129 0)
(-0.0842931 0.0855022 0)
(-0.104284 0.0799914 0)
(-0.123252 0.0697887 0)
(-0.140411 0.0547311 0)
(-0.154777 0.0346838 0)
(-0.165117 0.00987144 0)
(-0.169983 -0.0187802 0)
(-0.167843 -0.0493134 0)
(-0.157358 -0.0785335 0)
(-0.137865 -0.10203 0)
(-0.110031 -0.114689 0)
(-0.0765233 -0.111971 0)
(-0.042356 -0.0919642 0)
(-0.0148065 -0.0575464 0)
(-0.00188241 -0.0172071 0)
(-0.00208995 0.0263385 0)
(-0.0111539 0.0636369 0)
(-0.0275234 0.0877271 0)
(-0.0473146 0.101395 0)
(-0.0685359 0.107106 0)
(-0.0902604 0.106525 0)
(-0.111845 0.10046 0)
(-0.132719 0.0890096 0)
(-0.152216 0.0718475 0)
(-0.169421 0.0485762 0)
(-0.183071 0.0191226 0)
(-0.191531 -0.0158278 0)
(-0.192871 -0.0543727 0)
(-0.185097 -0.0929912 0)
(-0.166647 -0.126318 0)
(-0.137207 -0.147434 0)
(-0.0987741 -0.14916 0)
(-0.0567159 -0.126808 0)
(-0.0206624 -0.0820556 0)
(-0.0028428 -0.0256484 0)
(-0.00220044 0.0324449 0)
(-0.0117388 0.0775946 0)
(-0.0288847 0.106264 0)
(-0.0494416 0.122312 0)
(-0.0713148 0.129051 0)
(-0.0936371 0.128697 0)
(-0.115908 0.122313 0)
(-0.137747 0.110006 0)
(-0.158693 0.09127 0)
(-0.178021 0.0653845 0)
(-0.194597 0.0318634 0)
(-0.206785 -0.00903549 0)
(-0.212433 -0.0557322 0)
(-0.208986 -0.104703 0)
(-0.193886 -0.149924 0)
(-0.165419 -0.182697 0)
(-0.124096 -0.192577 0)
(-0.0746402 -0.170469 0)
(-0.0287331 -0.114692 0)
(-0.00435392 -0.0375558 0)
(-0.00229073 0.0388087 0)
(-0.0121649 0.0920943 0)
(-0.0297254 0.125331 0)
(-0.0504148 0.14358 0)
(-0.0720303 0.151163 0)
(-0.0937903 0.150965 0)
(-0.11538 0.144377 0)
(-0.136668 0.131564 0)
(-0.157491 0.111857 0)
(-0.177451 0.0841981 0)
(-0.195744 0.0476231 0)
(-0.211 0.00180305 0)
(-0.221145 -0.0522975 0)
(-0.223347 -0.111601 0)
(-0.21418 -0.169996 0)
(-0.190294 -0.217486 0)
(-0.149867 -0.240185 0)
(-0.0954691 -0.222918 0)
(-0.0395031 -0.157212 0)
(-0.0067106 -0.0543169 0)
(-0.00242902 0.0453864 0)
(-0.0126358 0.106924 0)
(-0.0303253 0.144419 0)
(-0.0504411 0.164346 0)
(-0.0706689 0.172263 0)
(-0.0903681 0.171866 0)
(-0.10947 0.164964 0)
(-0.128155 0.151841 0)
(-0.146638 0.131728 0)
(-0.164976 0.103279 0)
(-0.182891 0.0650541 0)
(-0.199566 0.0160584 0)
(-0.213397 -0.043602 0)
(-0.221734 -0.1118 0)
(-0.22072 -0.183151 0)
(-0.205508 -0.247363 0)
(-0.171388 -0.287771 0)
(-0.117089 -0.2821 0)
(-0.0531669 -0.210705 0)
(-0.0103178 -0.0777126 0)
(-0.00277112 0.0523205 0)
(-0.0135983 0.122066 0)
(-0.0313152 0.163055 0)
(-0.0501138 0.183624 0)
(-0.0676178 0.19091 0)
(-0.0834622 0.189583 0)
(-0.0979294 0.181947 0)
(-0.111581 0.168475 0)
(-0.125072 0.148379 0)
(-0.138993 0.120123 0)
(-0.153723 0.0818903 0)
(-0.169228 0.0320503 0)
(-0.184743 -0.030259 0)
(-0.198371 -0.104279 0)
(-0.206542 -0.18623 0)
(-0.203585 -0.266992 0)
(-0.182 -0.328853 0)
(-0.135408 -0.342977 0)
(-0.0691168 -0.2745 0)
(-0.0156267 -0.109819 0)
(-0.00363808 0.0601475 0)
(-0.0158941 0.137879 0)
(-0.0337966 0.180861 0)
(-0.0504492 0.200294 0)
(-0.0636276 0.20542 0)
(-0.0735386 0.202022 0)
(-0.0809951 0.192924 0)
(-0.087025 0.178813 0)
(-0.0927525 0.158956 0)
(-0.0993106 0.131747 0)
(-0.107754 0.0951455 0)
(-0.11891 0.0470522 0)
(-0.133091 -0.0142755 0)
(-0.149646 -0.0896067 0)
(-0.166154 -0.177421 0)
(-0.177321 -0.271386 0)
(-0.173904 -0.355489 0)
(-0.144236 -0.397155 0)
(-0.0851476 -0.344675 0)
(-0.0228724 -0.152541 0)
(-0.0056557 0.0701701 0)
(-0.0209674 0.155281 0)
(-0.0393531 0.197486 0)
(-0.0526098 0.212975 0)
(-0.0592978 0.213789 0)
(-0.0607566 0.206843 0)
(-0.0585987 0.195363 0)
(-0.0544092 0.18018 0)
(-0.0497732 0.160628 0)
(-0.0462913 0.135121 0)
(-0.0455828 0.101567 0)
(-0.0492385 0.0576413 0)
(-0.0586568 0.00101938 0)
(-0.0746402 -0.0703246 0)
(-0.0966267 -0.157294 0)
(-0.121184 -0.257563 0)
(-0.13939 -0.360041 0)
(-0.13567 -0.433716 0)
(-0.0965459 -0.41286 0)
(-0.0314231 -0.206723 0)
(-0.00995022 0.0851451 0)
(-0.0309968 0.175795 0)
(-0.0494963 0.212207 0)
(-0.0565777 0.219576 0)
(-0.0531986 0.213381 0)
(-0.0427407 0.20131 0)
(-0.0279123 0.186621 0)
(-0.0108953 0.170059 0)
(0.00634941 0.150921 0)
(0.0219186 0.127677 0)
(0.0338478 0.0983153 0)
(0.0400349 0.0605432 0)
(0.0382629 0.0118769 0)
(0.0264168 -0.0503613 0)
(0.00296091 -0.128933 0)
(-0.0316863 -0.225705 0)
(-0.0716784 -0.337196 0)
(-0.100634 -0.440973 0)
(-0.0955042 -0.466269 0)
(-0.0385975 -0.271455 0)
(-0.0181613 0.110701 0)
(-0.0480646 0.20061 0)
(-0.0625624 0.222101 0)
(-0.0562646 0.215667 0)
(-0.0361469 0.199757 0)
(-0.00861822 0.181565 0)
(0.0225412 0.163584 0)
(0.0547776 0.146012 0)
(0.0860664 0.127904 0)
(0.114535 0.107743 0)
(0.138205 0.0836953 0)
(0.154822 0.0537266 0)
(0.161733 0.0156016 0)
(0.155972 -0.0333224 0)
(0.13435 -0.0964587 0)
(0.0941035 -0.1787 0)
(0.0356476 -0.284922 0)
(-0.0288426 -0.407672 0)
(-0.0713122 -0.487946 0)
(-0.0380998 -0.342151 0)
(-0.030725 0.157439 0)
(-0.0680393 0.225194 0)
(-0.0603614 0.214773 0)
(-0.0239449 0.189295 0)
(0.0234427 0.163764 0)
(0.0737335 0.1413 0)
(0.123611 0.122252 0)
(0.171179 0.105795 0)
(0.215119 0.0905897 0)
(0.254189 0.07514 0)
(0.286885 0.0579089 0)
(0.311239 0.0373297 0)
(0.324585 0.011749 0)
(0.32375 -0.020837 0)
(0.304608 -0.0631942 0)
(0.262067 -0.120799 0)
(0.191453 -0.204363 0)
(0.093723 -0.325195 0)
(-0.00860992 -0.454479 0)
(-0.0162023 -0.396936 0)
(-0.0278375 0.22771 0)
(-0.0414165 0.224621 0)
(0.0374228 0.165749 0)
(0.125295 0.126586 0)
(0.204092 0.0997347 0)
(0.273562 0.079906 0)
(0.334991 0.0650513 0)
(0.389088 0.0536122 0)
(0.436261 0.0441269 0)
(0.476531 0.0353413 0)
(0.509326 0.0261899 0)
(0.533411 0.0157289 0)
(0.546547 0.00305323 0)
(0.546181 -0.0125437 0)
(0.528195 -0.0328175 0)
(0.486715 -0.0610862 0)
(0.413164 -0.106741 0)
(0.294552 -0.193625 0)
(0.131363 -0.332826 0)
(0.0668883 -0.369232 0)
(0.261866 0.137813 0)
(0.325117 0.118702 0)
(0.456633 0.0776939 0)
(0.561315 0.051965 0)
(0.632924 0.0362192 0)
(0.685216 0.0258691 0)
(0.726096 0.0189073 0)
(0.758933 0.0141427 0)
(0.785461 0.0106863 0)
(0.806591 0.0078862 0)
(0.822516 0.00526566 0)
(0.832826 0.00247389 0)
(0.8366 -0.000820799 0)
(0.832336 -0.00455253 0)
(0.817495 -0.00936079 0)
(0.788593 -0.0161046 0)
(0.738088 -0.0272458 0)
(0.6482 -0.0517697 0)
(0.474781 -0.1114 0)
(0.341577 -0.155817 0)
)
;

boundaryField
{
    movingWall
    {
        type            fixedValue;
        value           uniform (1 0 0);
    }
    fixedWalls
    {
        type            noSlip;
    }
    frontAndBack
    {
        type            empty;
    }
}


// ************************************************************************* //
