/*--------------------------------*- C++ -*----------------------------------*\
  =========                 |
  \\      /  F ield         | OpenFOAM: The Open Source CFD Toolbox
   \\    /   O peration     | Website:  https://openfoam.org
    \\  /    A nd           | Version:  7
     \\/     M anipulation  |
\*---------------------------------------------------------------------------*/
FoamFile
{
    version     2.0;
    format      ascii;
    class       volScalarField;
    location    "0.2";
    object      p;
}
// * * * * * * * * * * * * * * * * * * * * * * * * * * * * * * * * * * * * * //

dimensions      [0 2 -2 0 0 0 0];

internalField   nonuniform List<scalar> 
400
(
-1.47703e-08
-0.000799655
-0.00138919
-0.00189333
-0.00232891
-0.00268755
-0.0029208
-0.0029539
-0.0026873
-0.00198005
-0.000622641
0.00169622
0.00541831
0.0111057
0.0192902
0.0299867
0.0417755
0.0512388
0.0545238
0.0504165
0.000140863
-0.000565616
-0.00106416
-0.00153614
-0.00196526
-0.00232227
-0.00255014
-0.0025701
-0.00228016
-0.00153943
-0.000145432
0.00219112
0.00586635
0.011374
0.0191866
0.0293349
0.040556
0.0496923
0.0531563
0.0495022
0.000365438
-0.000353097
-0.000790289
-0.00124037
-0.00167218
-0.00204196
-0.00228482
-0.00231943
-0.00204532
-0.00132816
1.9353e-05
0.00225824
0.00574375
0.0109365
0.0183395
0.0281355
0.0392755
0.0486851
0.052497
0.0485648
0.000611996
-0.00018916
-0.000593074
-0.00103567
-0.00148257
-0.00188031
-0.00215785
-0.00223347
-0.00201273
-0.00137526
-0.000158927
0.00185887
0.00499
0.00968325
0.0165383
0.0260106
0.0373925
0.0476428
0.0521757
0.047732
0.000813666
-9.95452e-05
-0.000486962
-0.000935855
-0.00140988
-0.00184764
-0.00217359
-0.00230816
-0.0021674
-0.00165263
-0.000638675
0.00104321
0.00364618
0.00760219
0.0136336
0.0225664
0.03424
0.0458059
0.0516498
0.0470791
0.000902724
-0.000131594
-0.000512806
-0.000979063
-0.00148879
-0.00197326
-0.00235416
-0.00255678
-0.00251229
-0.00215157
-0.00139919
-0.000159135
0.00173771
0.0046782
0.00949496
0.0174615
0.0292405
0.0425227
0.0504743
0.0467783
0.000814825
-0.000339543
-0.000718054
-0.00120658
-0.00175385
-0.00228403
-0.00271768
-0.00298764
-0.00304444
-0.00285601
-0.00240938
-0.00170216
-0.000683162
0.000939635
0.00405999
0.0104433
0.0218843
0.0371271
0.0481701
0.0470254
0.000488336
-0.000777617
-0.00114681
-0.00165266
-0.00222971
-0.00279502
-0.00326937
-0.00359517
-0.0037457
-0.00373208
-0.00361517
-0.00350691
-0.00351232
-0.00349708
-0.00258123
0.00149762
0.0119219
0.0290937
0.0442643
0.0478536
-0.000138431
-0.00149916
-0.00183788
-0.00234288
-0.00293022
-0.00350947
-0.00400217
-0.00436129
-0.00458472
-0.0047307
-0.00494233
-0.00546245
-0.00658629
-0.00839534
-0.0101006
-0.00897993
-0.000355839
0.0183873
0.0384745
0.0490145
-0.00113214
-0.00255716
-0.00282361
-0.0032931
-0.00385805
-0.00441915
-0.00489802
-0.00525767
-0.00552042
-0.00579256
-0.00630313
-0.00743375
-0.0096888
-0.0133969
-0.0179129
-0.0201251
-0.0139648
0.00575196
0.0309592
0.0501836
-0.00257246
-0.00400504
-0.00412785
-0.00450707
-0.00500268
-0.00550316
-0.00592769
-0.00624696
-0.00650524
-0.00685423
-0.0076069
-0.00927917
-0.0125801
-0.0180741
-0.0252704
-0.030759
-0.0273483
-0.00726344
0.0226025
0.0514801
-0.00456513
-0.00589719
-0.00576191
-0.00597168
-0.00633605
-0.00672439
-0.00704861
-0.00728261
-0.00748805
-0.00785571
-0.00877472
-0.0108773
-0.0150478
-0.022028
-0.0314507
-0.0397124
-0.0387547
-0.0186047
0.0151382
0.0540127
-0.00726378
-0.00828741
-0.00771678
-0.0076483
-0.00780436
-0.00802249
-0.00819947
-0.00830594
-0.00841477
-0.00874622
-0.0097533
-0.0121539
-0.0169591
-0.0249903
-0.035929
-0.0458921
-0.0467027
-0.0262167
0.0108205
0.0602475
-0.010908
-0.0112209
-0.0099477
-0.00945758
-0.00931442
-0.00930216
-0.0092907
-0.00923898
-0.00922393
-0.00948332
-0.0105192
-0.0130957
-0.0182886
-0.026881
-0.0385154
-0.0489658
-0.0503054
-0.0284845
0.0118006
0.0740758
-0.0158983
-0.0147097
-0.0123457
-0.0112549
-0.0107137
-0.0104173
-0.0101921
-0.00997405
-0.00983691
-0.0100223
-0.0110664
-0.0137354
-0.019101
-0.0278037
-0.0393869
-0.0490979
-0.049012
-0.0243601
0.0200669
0.100101
-0.0229688
-0.0186838
-0.0147038
-0.0128004
-0.0117692
-0.0111594
-0.0107269
-0.0103703
-0.0101522
-0.0103045
-0.0113826
-0.0140976
-0.0195161
-0.0279296
-0.0387273
-0.0464787
-0.0431894
-0.0133898
0.039045
0.141606
-0.033532
-0.0229554
-0.0167117
-0.0137333
-0.0121573
-0.0112662
-0.0106919
-0.010275
-0.0100615
-0.0102627
-0.0114425
-0.0142203
-0.0195967
-0.0274432
-0.036884
-0.0416088
-0.0334535
0.00486866
0.0714669
0.201321
-0.0499112
-0.026928
-0.0176531
-0.0134208
-0.0114078
-0.0104131
-0.00987258
-0.00954771
-0.00946836
-0.00982844
-0.0111922
-0.0140747
-0.0193684
-0.0265201
-0.0343306
-0.0355415
-0.0215116
0.0283662
0.115966
0.285154
-0.0743092
-0.0269041
-0.0143763
-0.0103447
-0.00867748
-0.00808381
-0.00796051
-0.00800013
-0.00823898
-0.00888536
-0.0105021
-0.013534
-0.0187434
-0.0252792
-0.0316572
-0.0299046
-0.0108474
0.050966
0.165231
0.39252
-0.111263
-0.0159524
-0.00255861
-0.00317467
-0.0035252
-0.00413563
-0.00494073
-0.00566631
-0.00640931
-0.00744525
-0.00934298
-0.0125477
-0.0177023
-0.023885
-0.0294365
-0.0263515
-0.00515237
0.0638313
0.201215
0.496689
)
;

boundaryField
{
    movingWall
    {
        type            zeroGradient;
    }
    fixedWalls
    {
        type            zeroGradient;
    }
    frontAndBack
    {
        type            empty;
    }
}


// ************************************************************************* //
