/*--------------------------------*- C++ -*----------------------------------*\
  =========                 |
  \\      /  F ield         | OpenFOAM: The Open Source CFD Toolbox
   \\    /   O peration     | Website:  https://openfoam.org
    \\  /    A nd           | Version:  7
     \\/     M anipulation  |
\*---------------------------------------------------------------------------*/
FoamFile
{
    version     2.0;
    format      ascii;
    class       surfaceScalarField;
    location    "0.2";
    object      phi;
}
// * * * * * * * * * * * * * * * * * * * * * * * * * * * * * * * * * * * * * //

dimensions      [0 3 -1 0 0 0 0];

internalField   nonuniform List<scalar> 
760
(
6.2742e-09
-6.27308e-09
-3.40745e-08
4.03487e-08
-9.18905e-08
5.78156e-08
-1.53615e-07
6.17243e-08
-2.16478e-07
6.28633e-08
-2.81519e-07
6.50409e-08
-3.50574e-07
6.90549e-08
-4.26056e-07
7.54816e-08
-5.11442e-07
8.53863e-08
-6.11388e-07
9.9946e-08
-7.30931e-07
1.19543e-07
-8.73003e-07
1.42073e-07
-1.03294e-06
1.5994e-07
-1.18858e-06
1.55636e-07
-1.28742e-06
9.88409e-08
-1.24325e-06
-4.41649e-08
-9.73167e-07
-2.70088e-07
-4.97684e-07
-4.75483e-07
-5.82094e-08
-4.39475e-07
-5.82096e-08
-2.56799e-08
1.94065e-08
-1.47312e-07
1.6198e-07
-3.11307e-07
2.2181e-07
-4.86817e-07
2.37234e-07
-6.64495e-07
2.40542e-07
-8.44686e-07
2.45232e-07
-1.03084e-06
2.55214e-07
-1.22827e-06
2.72903e-07
-1.44439e-06
3.01515e-07
-1.68834e-06
3.43891e-07
-1.96812e-06
3.99319e-07
-2.28392e-06
4.57881e-07
-2.61568e-06
4.917e-07
-2.90495e-06
4.44897e-07
-3.03883e-06
2.3272e-07
-2.85911e-06
-2.23883e-07
-2.23501e-06
-8.94181e-07
-1.22843e-06
-1.48207e-06
-2.74897e-07
-1.39301e-06
-3.33107e-07
-7.51119e-08
9.45182e-08
-2.80669e-07
3.67538e-07
-5.42948e-07
4.84089e-07
-8.19666e-07
5.13952e-07
-1.09648e-06
5.17358e-07
-1.37241e-06
5.21163e-07
-1.65146e-06
5.34262e-07
-1.94053e-06
5.61972e-07
-2.24924e-06
6.10226e-07
-2.58866e-06
6.83316e-07
-2.967e-06
7.77659e-07
-3.38029e-06
8.71169e-07
-3.79688e-06
9.08291e-07
-4.13779e-06
7.85801e-07
-4.26295e-06
3.57882e-07
-3.9861e-06
-5.00728e-07
-3.15392e-06
-1.72637e-06
-1.82474e-06
-2.81124e-06
-5.03034e-07
-2.71471e-06
-8.36141e-07
-1.29163e-07
2.23681e-07
-4.17709e-07
6.56084e-07
-7.69114e-07
8.35494e-07
-1.13255e-06
8.7739e-07
-1.49045e-06
8.75256e-07
-1.84086e-06
8.71574e-07
-2.18799e-06
8.81391e-07
-2.53969e-06
9.13668e-07
-2.9069e-06
9.77435e-07
-3.30191e-06
1.07833e-06
-3.73335e-06
1.2091e-06
-4.19612e-06
1.33394e-06
-4.65544e-06
1.36761e-06
-5.02756e-06
1.15791e-06
-5.16579e-06
4.96117e-07
-4.86942e-06
-7.97098e-07
-3.95011e-06
-2.64568e-06
-2.41213e-06
-4.34922e-06
-7.55984e-07
-4.37086e-06
-1.59212e-06
-1.82057e-07
4.05737e-07
-5.48978e-07
1.023e-06
-9.78818e-07
1.26533e-06
-1.41363e-06
1.3122e-06
-1.83416e-06
1.29578e-06
-2.23817e-06
1.27559e-06
-2.63016e-06
1.27337e-06
-3.01867e-06
1.30218e-06
-3.41575e-06
1.37451e-06
-3.83519e-06
1.49776e-06
-4.28781e-06
1.66172e-06
-4.77199e-06
1.81813e-06
-5.25848e-06
1.8541e-06
-5.67078e-06
1.57021e-06
-5.86657e-06
6.91909e-07
-5.63259e-06
-1.03108e-06
-4.73008e-06
-3.54819e-06
-3.07001e-06
-6.00929e-06
-1.08242e-06
-6.35845e-06
-2.67454e-06
-2.31705e-07
6.37442e-07
-6.70258e-07
1.46156e-06
-1.16703e-06
1.76211e-06
-1.658e-06
1.80317e-06
-2.12359e-06
1.76137e-06
-2.56204e-06
1.71405e-06
-2.97836e-06
1.68969e-06
-3.38176e-06
1.70559e-06
-3.78535e-06
1.7781e-06
-4.20495e-06
1.91737e-06
-4.65552e-06
2.11229e-06
-5.14296e-06
2.30557e-06
-5.6499e-06
2.36104e-06
-6.11444e-06
2.03475e-06
-6.4041e-06
9.81564e-07
-6.29478e-06
-1.1404e-06
-5.49525e-06
-4.34772e-06
-3.80433e-06
-7.70021e-06
-1.5097e-06
-8.65308e-06
-4.18425e-06
-2.78104e-07
9.15546e-07
-7.81095e-07
1.96455e-06
-1.33333e-06
2.31434e-06
-1.86602e-06
2.33586e-06
-2.36056e-06
2.25591e-06
-2.81647e-06
2.16996e-06
-3.23949e-06
2.11271e-06
-3.63939e-06
2.10549e-06
-4.03016e-06
2.16886e-06
-4.42979e-06
2.317e-06
-4.8582e-06
2.5407e-06
-5.33083e-06
2.77821e-06
-5.84522e-06
2.87543e-06
-6.3573e-06
2.54683e-06
-6.74805e-06
1.37231e-06
-6.79059e-06
-1.09786e-06
-6.15832e-06
-4.97999e-06
-4.54214e-06
-9.31639e-06
-2.02382e-06
-1.11714e-05
-6.20807e-06
-3.22728e-07
1.23827e-06
-8.8369e-07
2.52551e-06
-1.48042e-06
2.91108e-06
-2.04123e-06
2.89666e-06
-2.55002e-06
2.7647e-06
-3.00829e-06
2.62823e-06
-3.42269e-06
2.52712e-06
-3.8033e-06
2.48609e-06
-4.16434e-06
2.52991e-06
-4.52519e-06
2.67785e-06
-4.90993e-06
2.92544e-06
-5.34287e-06
3.21115e-06
-5.83618e-06
3.36874e-06
-6.36438e-06
3.07503e-06
-6.82695e-06
1.83488e-06
-7.00996e-06
-9.14852e-07
-6.58414e-06
-5.4058e-06
-5.15482e-06
-1.07457e-05
-2.56297e-06
-1.37632e-05
-8.77104e-06
-3.68189e-07
1.60646e-06
-9.82002e-07
3.13932e-06
-1.61261e-06
3.54168e-06
-2.18826e-06
3.47232e-06
-2.69718e-06
3.27362e-06
-3.14365e-06
3.0747e-06
-3.53538e-06
2.91884e-06
-3.88225e-06
2.83297e-06
-4.19773e-06
2.84538e-06
-4.50073e-06
2.98085e-06
-4.81698e-06
3.24169e-06
-5.17657e-06
3.57074e-06
-5.60372e-06
3.79589e-06
-6.0917e-06
3.56301e-06
-6.56664e-06
2.30982e-06
-6.84838e-06
-6.33113e-07
-6.64342e-06
-5.61077e-06
-5.50378e-06
-1.18854e-05
-3.03057e-06
-1.62364e-05
-1.18016e-05
-4.18157e-07
2.02462e-06
-1.08106e-06
3.80223e-06
-1.73444e-06
4.19506e-06
-2.31072e-06
4.0486e-06
-2.8048e-06
3.76771e-06
-3.22473e-06
3.49462e-06
-3.57945e-06
3.27357e-06
-3.8783e-06
3.13181e-06
-4.13265e-06
3.09974e-06
-4.35857e-06
3.20677e-06
-4.57968e-06
3.4628e-06
-4.82719e-06
3.81825e-06
-5.13364e-06
4.10233e-06
-5.51166e-06
3.94103e-06
-5.92463e-06
2.72279e-06
-6.2475e-06
-3.10248e-07
-6.25707e-06
-5.60119e-06
-5.48719e-06
-1.26552e-05
-3.32219e-06
-1.84014e-05
-1.51238e-05
-4.77562e-07
2.50218e-06
-1.18648e-06
4.51114e-06
-1.84925e-06
4.85783e-06
-2.40889e-06
4.60824e-06
-2.87011e-06
4.22892e-06
-3.24597e-06
3.87048e-06
-3.54724e-06
3.57484e-06
-3.78256e-06
3.36713e-06
-3.96028e-06
3.27746e-06
-4.09126e-06
3.33775e-06
-4.1931e-06
3.56464e-06
-4.29286e-06
3.91801e-06
-4.42722e-06
4.23669e-06
-4.62855e-06
4.14237e-06
-4.90699e-06
3.00123e-06
-5.21262e-06
-4.61687e-09
-5.41335e-06
-5.40046e-06
-5.06441e-06
-1.30042e-05
-3.36303e-06
-2.01028e-05
-1.84868e-05
-5.53133e-07
3.05532e-06
-1.30394e-06
5.26195e-06
-1.95742e-06
5.51131e-06
-2.47682e-06
5.12764e-06
-2.88083e-06
4.63294e-06
-3.18938e-06
4.17903e-06
-3.41615e-06
3.80161e-06
-3.56966e-06
3.52063e-06
-3.65504e-06
3.36284e-06
-3.67653e-06
3.35923e-06
-3.64274e-06
3.53086e-06
-3.57179e-06
3.84706e-06
-3.4999e-06
4.16479e-06
-3.47713e-06
4.1196e-06
-3.56563e-06
3.08973e-06
-3.80178e-06
2.31541e-07
-4.15585e-06
-5.0464e-06
-4.25003e-06
-1.291e-05
-3.13348e-06
-2.12194e-05
-2.16203e-05
-6.54382e-07
3.7097e-06
-1.4384e-06
6.04597e-06
-2.05332e-06
6.12622e-06
-2.49739e-06
5.57172e-06
-2.80899e-06
4.94454e-06
-3.01743e-06
4.38747e-06
-3.14104e-06
3.92522e-06
-3.18952e-06
3.56911e-06
-3.16569e-06
3.339e-06
-3.06721e-06
3.26076e-06
-2.89269e-06
3.35634e-06
-2.64792e-06
3.60229e-06
-2.36377e-06
3.88064e-06
-2.10161e-06
3.85744e-06
-1.97493e-06
2.96305e-06
-2.0965e-06
3.53107e-07
-2.55501e-06
-4.58789e-06
-3.08341e-06
-1.23816e-05
-2.6486e-06
-2.16542e-05
-2.42689e-05
-7.95142e-07
4.50484e-06
-1.59162e-06
6.84245e-06
-2.11892e-06
6.65353e-06
-2.43309e-06
5.88588e-06
-2.59992e-06
5.11136e-06
-2.66134e-06
4.44889e-06
-2.64241e-06
3.90629e-06
-2.55553e-06
3.48223e-06
-2.40269e-06
3.18616e-06
-2.17646e-06
3.03454e-06
-1.86657e-06
3.04645e-06
-1.46556e-06
3.20128e-06
-9.94441e-07
3.40952e-06
-5.16751e-07
3.37975e-06
-1.89334e-07
2.63563e-06
-1.92108e-07
3.55881e-07
-6.74473e-07
-4.10552e-06
-1.5888e-06
-1.14673e-05
-1.9213e-06
-2.13217e-05
-2.61902e-05
-9.95559e-07
5.5004e-06
-1.7544e-06
7.60129e-06
-2.10786e-06
7.00699e-06
-2.20533e-06
5.98336e-06
-2.15031e-06
5.05634e-06
-2.00013e-06
4.29872e-06
-1.78742e-06
3.69358e-06
-1.52755e-06
3.22235e-06
-1.22245e-06
2.88107e-06
-8.61242e-07
2.67332e-06
-4.27122e-07
2.61233e-06
9.9862e-08
2.67429e-06
7.06989e-07
2.80239e-06
1.34464e-06
2.7421e-06
1.84668e-06
2.13359e-06
1.97888e-06
2.23681e-07
1.46412e-06
-3.59076e-06
1.6159e-07
-1.01647e-05
-8.58306e-07
-2.03018e-05
-2.70485e-05
-1.27816e-06
6.77856e-06
-1.8792e-06
8.20233e-06
-1.90198e-06
7.02977e-06
-1.64631e-06
5.72768e-06
-1.26289e-06
4.67292e-06
-8.21743e-07
3.85758e-06
-3.5863e-07
3.23047e-06
1.11929e-07
2.75179e-06
5.90214e-07
2.40278e-06
1.09059e-06
2.17295e-06
1.63423e-06
2.06869e-06
2.24791e-06
2.06062e-06
2.93412e-06
2.11618e-06
3.65335e-06
2.02287e-06
4.24883e-06
1.53811e-06
4.45063e-06
2.18847e-08
3.9256e-06
-3.06573e-06
2.36748e-06
-8.60663e-06
5.31634e-07
-1.84659e-05
-2.65169e-05
-1.63106e-06
8.40962e-06
-1.78265e-06
8.35391e-06
-1.19188e-06
6.43901e-06
-3.89505e-07
4.92531e-06
4.41728e-07
3.84169e-06
1.24323e-06
3.05607e-06
1.99278e-06
2.48093e-06
2.68761e-06
2.05696e-06
3.33765e-06
1.75274e-06
3.96344e-06
1.54716e-06
4.59171e-06
1.44042e-06
5.25226e-06
1.40007e-06
5.9576e-06
1.41084e-06
6.67445e-06
1.30602e-06
7.27135e-06
9.41209e-07
7.45431e-06
-1.61074e-07
6.85153e-06
-2.46295e-06
4.93546e-06
-6.69056e-06
1.94547e-06
-1.54759e-05
-2.45714e-05
-1.79623e-06
1.02058e-05
-8.14831e-07
7.37252e-06
8.17215e-07
4.80696e-06
2.33489e-06
3.40763e-06
3.65712e-06
2.51946e-06
4.80182e-06
1.91137e-06
5.79029e-06
1.49246e-06
6.64832e-06
1.19893e-06
7.40539e-06
9.95673e-07
8.0924e-06
8.60149e-07
8.7443e-06
7.8851e-07
9.38968e-06
7.54695e-07
1.00502e-05
7.50349e-07
1.06867e-05
6.69501e-07
1.11951e-05
4.32758e-07
1.12736e-05
-2.39551e-07
1.05006e-05
-1.68989e-06
8.18595e-06
-4.37595e-06
3.98101e-06
-1.1271e-05
-2.05904e-05
-5.55981e-08
1.02614e-05
3.1251e-06
4.19183e-06
5.8654e-06
2.06665e-06
7.89196e-06
1.38108e-06
9.45256e-06
9.58862e-07
1.06861e-05
6.77783e-07
1.16783e-05
5.00342e-07
1.24915e-05
3.85653e-07
1.31761e-05
3.11141e-07
1.37715e-05
2.64683e-07
1.43178e-05
2.4227e-07
1.48392e-05
2.33306e-07
1.5359e-05
2.30471e-07
1.58325e-05
1.96059e-07
1.61733e-05
9.19058e-08
1.61055e-05
-1.71765e-07
1.51737e-05
-7.58072e-07
1.26453e-05
-1.84752e-06
7.09186e-06
-5.71756e-06
-1.34986e-05
1.02614e-05
1.44533e-05
1.65199e-05
1.7901e-05
1.88599e-05
1.95376e-05
2.0038e-05
2.04236e-05
2.07348e-05
2.09995e-05
2.12417e-05
2.1475e-05
2.17055e-05
2.19016e-05
2.19935e-05
2.18217e-05
2.10636e-05
1.92161e-05
1.34986e-05
)
;

boundaryField
{
    movingWall
    {
        type            calculated;
        value           uniform 0;
    }
    fixedWalls
    {
        type            calculated;
        value           uniform 0;
    }
    frontAndBack
    {
        type            empty;
        value           nonuniform 0();
    }
}


// ************************************************************************* //
