/*--------------------------------*- C++ -*----------------------------------*\
  =========                 |
  \\      /  F ield         | OpenFOAM: The Open Source CFD Toolbox
   \\    /   O peration     | Website:  https://openfoam.org
    \\  /    A nd           | Version:  7
     \\/     M anipulation  |
\*---------------------------------------------------------------------------*/
FoamFile
{
    version     2.0;
    format      ascii;
    class       volVectorField;
    location    "0.2";
    object      U;
}
// * * * * * * * * * * * * * * * * * * * * * * * * * * * * * * * * * * * * * //

dimensions      [0 1 -1 0 0 0 0];

internalField   nonuniform List<vector> 
400
(
(0.000406953 -0.000149994 0)
(-0.000211032 0.000234146 0)
(-0.00244586 0.000365497 0)
(-0.00489707 0.000390149 0)
(-0.00739759 0.000400687 0)
(-0.00994748 0.000424663 0)
(-0.0126146 0.000465034 0)
(-0.0154844 0.00052497 0)
(-0.0186739 0.000613553 0)
(-0.0223498 0.000742945 0)
(-0.0267205 0.000922189 0)
(-0.0319775 0.00114454 0)
(-0.0381432 0.00136142 0)
(-0.0447517 0.00143626 0)
(-0.050329 0.00109784 0)
(-0.0519419 3.64747e-06 0)
(-0.0458105 -0.00190505 0)
(-0.0301114 -0.00373873 0)
(-0.00904635 -0.00347866 0)
(0.000934282 -0.000127041 0)
(0.000115308 -5.98906e-05 0)
(-0.00266504 0.00163931 0)
(-0.00898077 0.00232694 0)
(-0.0159374 0.00249816 0)
(-0.0230317 0.00254755 0)
(-0.0301722 0.00262677 0)
(-0.0374624 0.00277313 0)
(-0.0450808 0.00301134 0)
(-0.0532828 0.00338133 0)
(-0.0624135 0.00392481 0)
(-0.0728578 0.00464988 0)
(-0.084867 0.00546503 0)
(-0.0981835 0.00606709 0)
(-0.111382 0.00578985 0)
(-0.12101 0.00353551 0)
(-0.121204 -0.00182383 0)
(-0.105354 -0.0100618 0)
(-0.0709615 -0.0174454 0)
(-0.0262173 -0.0162692 0)
(-0.00137772 -0.00292036 0)
(-0.000627035 0.000913051 0)
(-0.00601181 0.00487992 0)
(-0.016219 0.0065846 0)
(-0.0272422 0.0070366 0)
(-0.038366 0.00712399 0)
(-0.0494027 0.00723323 0)
(-0.0604519 0.00748479 0)
(-0.0717395 0.00795173 0)
(-0.0836006 0.00872345 0)
(-0.096473 0.00987301 0)
(-0.110805 0.0113664 0)
(-0.126804 0.0129037 0)
(-0.143935 0.0136831 0)
(-0.160148 0.0121541 0)
(-0.170974 0.00604834 0)
(-0.169315 -0.00664739 0)
(-0.147454 -0.0249862 0)
(-0.102173 -0.0410671 0)
(-0.0422093 -0.0389511 0)
(-0.00466742 -0.0105714 0)
(-0.00150672 0.00295725 0)
(-0.00960722 0.00985966 0)
(-0.0234821 0.0128002 0)
(-0.0380754 0.0135416 0)
(-0.0525712 0.0135896 0)
(-0.0667197 0.0136278 0)
(-0.0806113 0.0138914 0)
(-0.0944984 0.0145206 0)
(-0.108765 0.0156635 0)
(-0.123904 0.0174192 0)
(-0.140408 0.0196808 0)
(-0.158481 0.0218723 0)
(-0.177519 0.0225912 0)
(-0.195316 0.0192951 0)
(-0.207172 0.00847048 0)
(-0.205576 -0.0128507 0)
(-0.181877 -0.0431585 0)
(-0.130944 -0.0703403 0)
(-0.0596443 -0.0688888 0)
(-0.00874406 -0.0229653 0)
(-0.00238884 0.00608127 0)
(-0.013123 0.0164544 0)
(-0.0303569 0.0206803 0)
(-0.0479788 0.0216102 0)
(-0.0651601 0.0214713 0)
(-0.0816309 0.0212777 0)
(-0.0974838 0.0213961 0)
(-0.112992 0.0220451 0)
(-0.128575 0.0234381 0)
(-0.144778 0.0257016 0)
(-0.162162 0.0286543 0)
(-0.181046 0.0314443 0)
(-0.201015 0.0320792 0)
(-0.220149 0.0270462 0)
(-0.23405 0.0115593 0)
(-0.235135 -0.018555 0)
(-0.213501 -0.0618567 0)
(-0.161004 -0.102715 0)
(-0.0812074 -0.105322 0)
(-0.0145012 -0.0409377 0)
(-0.0032278 0.0102345 0)
(-0.0164229 0.0245461 0)
(-0.0366496 0.0300029 0)
(-0.0567472 0.0309381 0)
(-0.075947 0.0304101 0)
(-0.0940004 0.0297845 0)
(-0.11102 0.0295648 0)
(-0.127301 0.0300541 0)
(-0.143293 0.0315384 0)
(-0.159594 0.0341864 0)
(-0.176879 0.0377717 0)
(-0.195692 0.0412186 0)
(-0.216019 0.0420169 0)
(-0.236535 0.035734 0)
(-0.253462 0.0162264 0)
(-0.259292 -0.0222973 0)
(-0.242689 -0.0793046 0)
(-0.19218 -0.136675 0)
(-0.107636 -0.148314 0)
(-0.0228249 -0.0663006 0)
(-0.00402777 0.0153452 0)
(-0.0194963 0.0339957 0)
(-0.0423361 0.0405454 0)
(-0.0643724 0.041238 0)
(-0.0849685 0.0400797 0)
(-0.103938 0.0387985 0)
(-0.121432 0.03803 0)
(-0.137767 0.0381613 0)
(-0.153413 0.0395598 0)
(-0.169017 0.042461 0)
(-0.18538 0.0466455 0)
(-0.203326 0.0508977 0)
(-0.223351 0.052289 0)
(-0.244869 0.0455155 0)
(-0.264889 0.0229568 0)
(-0.276164 -0.0232131 0)
(-0.266218 -0.0941312 0)
(-0.220875 -0.170471 0)
(-0.13679 -0.197061 0)
(-0.0339444 -0.101125 0)
(-0.00482711 0.0213584 0)
(-0.0224213 0.0446639 0)
(-0.047512 0.0520842 0)
(-0.0709741 0.0522325 0)
(-0.092389 0.0501761 0)
(-0.111674 0.0480039 0)
(-0.129035 0.0464681 0)
(-0.144805 0.0460325 0)
(-0.159457 0.0471504 0)
(-0.173657 0.0501504 0)
(-0.188295 0.0548802 0)
(-0.204444 0.0600801 0)
(-0.223088 0.0625124 0)
(-0.244392 0.056057 0)
(-0.266265 0.031542 0)
(-0.282071 -0.0211398 0)
(-0.27905 -0.105305 0)
(-0.241575 -0.201942 0)
(-0.16399 -0.249262 0)
(-0.04678 -0.146879 0)
(-0.00569254 0.0282611 0)
(-0.02534 0.0564335 0)
(-0.0523457 0.0644052 0)
(-0.0767289 0.0636563 0)
(-0.0984024 0.0604153 0)
(-0.117433 0.057113 0)
(-0.134097 0.0545907 0)
(-0.14874 0.0533709 0)
(-0.161807 0.0539877 0)
(-0.173923 0.0568801 0)
(-0.185983 0.0620152 0)
(-0.199189 0.0681802 0)
(-0.214886 0.0719456 0)
(-0.23392 0.0664711 0)
(-0.255225 0.0410968 0)
(-0.273341 -0.0165376 0)
(-0.27647 -0.112157 0)
(-0.248877 -0.228751 0)
(-0.18369 -0.301341 0)
(-0.058595 -0.203502 0)
(-0.00672096 0.0361039 0)
(-0.0284462 0.0692174 0)
(-0.0570378 0.0772963 0)
(-0.0818 0.0752412 0)
(-0.103134 0.070514 0)
(-0.121312 0.0658446 0)
(-0.136699 0.062121 0)
(-0.149648 0.0598943 0)
(-0.160549 0.0597595 0)
(-0.169915 0.0622633 0)
(-0.178521 0.0675234 0)
(-0.187519 0.0744501 0)
(-0.198424 0.0795574 0)
(-0.212651 0.0754628 0)
(-0.230337 0.0502806 0)
(-0.247863 -0.0102888 0)
(-0.255773 -0.114406 0)
(-0.239198 -0.248771 0)
(-0.191631 -0.34926 0)
(-0.0657445 -0.268637 0)
(-0.00804952 0.0450233 0)
(-0.031984 0.0829517 0)
(-0.0617832 0.0905221 0)
(-0.0862634 0.0866832 0)
(-0.106534 0.0801532 0)
(-0.123139 0.0738862 0)
(-0.136566 0.0687598 0)
(-0.147189 0.0653101 0)
(-0.155318 0.0641548 0)
(-0.161298 0.065919 0)
(-0.165659 0.0708724 0)
(-0.169306 0.0781028 0)
(-0.17371 0.0842295 0)
(-0.180711 0.0816067 0)
(-0.191801 0.0575908 0)
(-0.205828 -0.00356009 0)
(-0.216906 -0.112196 0)
(-0.211478 -0.26043 0)
(-0.186023 -0.389266 0)
(-0.0653874 -0.33769 0)
(-0.00987552 0.055272 0)
(-0.0362571 0.0975737 0)
(-0.0667267 0.103777 0)
(-0.0900108 0.0975895 0)
(-0.108235 0.0889245 0)
(-0.122301 0.0808439 0)
(-0.132875 0.0741428 0)
(-0.140381 0.0692869 0)
(-0.145067 0.066861 0)
(-0.147076 0.0675118 0)
(-0.146618 0.0716289 0)
(-0.144187 0.0785013 0)
(-0.141002 0.0850335 0)
(-0.139116 0.0836759 0)
(-0.141409 0.0616576 0)
(-0.149473 0.00231284 0)
(-0.162031 -0.106115 0)
(-0.166762 -0.26289 0)
(-0.167231 -0.418224 0)
(-0.0565916 -0.405023 0)
(-0.0124887 0.0672658 0)
(-0.0416459 0.112972 0)
(-0.0718858 0.116608 0)
(-0.0925889 0.107398 0)
(-0.107328 0.0962542 0)
(-0.117474 0.0861747 0)
(-0.12395 0.0777861 0)
(-0.127291 0.0714183 0)
(-0.127726 0.0675551 0)
(-0.125223 0.066786 0)
(-0.119662 0.0695595 0)
(-0.111039 0.0753462 0)
(-0.100166 0.0815005 0)
(-0.0889977 0.0809511 0)
(-0.081659 0.0615734 0)
(-0.0820106 0.00632594 0)
(-0.094384 -0.0972573 0)
(-0.107086 -0.256133 0)
(-0.136667 -0.433907 0)
(-0.0397864 -0.465041 0)
(-0.0163174 0.0816656 0)
(-0.0486188 0.128885 0)
(-0.0769704 0.128278 0)
(-0.0928722 0.115254 0)
(-0.101941 0.101298 0)
(-0.106156 0.0891026 0)
(-0.106791 0.079023 0)
(-0.104558 0.071178 0)
(-0.099728 0.0658777 0)
(-0.0921465 0.0635654 0)
(-0.0814435 0.0646704 0)
(-0.0671091 0.0687748 0)
(-0.049522 0.0737971 0)
(-0.0301 0.0734492 0)
(-0.0139338 0.0570971 0)
(-0.00598277 0.00787476 0)
(-0.0169376 -0.0871692 0)
(-0.0342905 -0.240943 0)
(-0.0954843 -0.435395 0)
(-0.0152204 -0.512075 0)
(-0.0219795 0.0995217 0)
(-0.0576736 0.144707 0)
(-0.0808772 0.137552 0)
(-0.0882953 0.11982 0)
(-0.0883646 0.102804 0)
(-0.0837967 0.0885344 0)
(-0.0762709 0.0769558 0)
(-0.0666823 0.0678897 0)
(-0.0553632 0.0614043 0)
(-0.042068 0.057714 0)
(-0.0263028 0.0571542 0)
(-0.00709124 0.059308 0)
(0.0154527 0.0627253 0)
(0.0409729 0.0619672 0)
(0.0635027 0.048589 0)
(0.0787975 0.00662538 0)
(0.0693302 -0.0767266 0)
(0.0507256 -0.218464 0)
(-0.0433645 -0.422779 0)
(0.0184104 -0.540295 0)
(-0.0302571 0.122397 0)
(-0.0688878 0.159061 0)
(-0.0801393 0.14226 0)
(-0.0729205 0.11897 0)
(-0.0591263 0.0989584 0)
(-0.0420945 0.0830132 0)
(-0.0237308 0.0704726 0)
(-0.00492815 0.0607642 0)
(0.0140293 0.0536643 0)
(0.0335662 0.0491063 0)
(0.0541768 0.047288 0)
(0.0773462 0.0476943 0)
(0.102767 0.049463 0)
(0.131712 0.0479668 0)
(0.156873 0.0372285 0)
(0.177353 0.00300778 0)
(0.167351 -0.0660346 0)
(0.148914 -0.188998 0)
(0.022418 -0.393536 0)
(0.0647355 -0.545436 0)
(-0.0415421 0.151863 0)
(-0.0793604 0.168139 0)
(-0.0640523 0.13786 0)
(-0.032673 0.109189 0)
(0.000982866 0.0872509 0)
(0.0340749 0.0707979 0)
(0.0652538 0.0584183 0)
(0.0941866 0.0490906 0)
(0.120958 0.042297 0)
(0.146444 0.0377057 0)
(0.171069 0.0353768 0)
(0.197014 0.0346867 0)
(0.22315 0.0352128 0)
(0.253003 0.0331934 0)
(0.276587 0.0249558 0)
(0.299183 -0.00111498 0)
(0.284371 -0.0541423 0)
(0.264434 -0.152312 0)
(0.106191 -0.343211 0)
(0.128589 -0.523215 0)
(-0.0523959 0.187492 0)
(-0.0697924 0.160607 0)
(-0.00113761 0.115098 0)
(0.0644834 0.0855844 0)
(0.121408 0.065167 0)
(0.170731 0.0506782 0)
(0.213225 0.0403613 0)
(0.250004 0.0329114 0)
(0.281986 0.027621 0)
(0.31084 0.0240191 0)
(0.336919 0.0220615 0)
(0.363301 0.0211422 0)
(0.387544 0.0210943 0)
(0.415756 0.0192169 0)
(0.434042 0.0135381 0)
(0.455293 -0.00370795 0)
(0.431247 -0.0395275 0)
(0.406711 -0.106526 0)
(0.217218 -0.265068 0)
(0.218051 -0.458816 0)
(-0.0277669 0.226811 0)
(0.0474568 0.124403 0)
(0.184669 0.0709997 0)
(0.28002 0.0487721 0)
(0.350365 0.034962 0)
(0.405379 0.0255708 0)
(0.44927 0.0193241 0)
(0.485001 0.0151092 0)
(0.514458 0.0122755 0)
(0.540024 0.0104236 0)
(0.562019 0.00945607 0)
(0.583989 0.00898806 0)
(0.602594 0.00889779 0)
(0.625188 0.0077996 0)
(0.635702 0.00456251 0)
(0.651439 -0.00403564 0)
(0.618082 -0.0230712 0)
(0.588014 -0.0564006 0)
(0.38068 -0.160626 0)
(0.35614 -0.330224 0)
(0.403209 0.134724 0)
(0.50065 0.0667872 0)
(0.620376 0.0312553 0)
(0.693612 0.0176036 0)
(0.738747 0.0108781 0)
(0.770003 0.00698689 0)
(0.792855 0.00471266 0)
(0.810226 0.00336011 0)
(0.823801 0.00254965 0)
(0.835273 0.00207843 0)
(0.844917 0.00186576 0)
(0.854775 0.00179527 0)
(0.862778 0.00178264 0)
(0.872854 0.00151001 0)
(0.875096 0.000478816 0)
(0.879363 -0.00173104 0)
(0.850511 -0.0072033 0)
(0.823347 -0.0155242 0)
(0.667294 -0.0464091 0)
(0.609221 -0.118707 0)
)
;

boundaryField
{
    movingWall
    {
        type            fixedValue;
        value           uniform (1 0 0);
    }
    fixedWalls
    {
        type            noSlip;
    }
    frontAndBack
    {
        type            empty;
    }
}


// ************************************************************************* //
