/*--------------------------------*- C++ -*----------------------------------*\
  =========                 |
  \\      /  F ield         | OpenFOAM: The Open Source CFD Toolbox
   \\    /   O peration     | Website:  https://openfoam.org
    \\  /    A nd           | Version:  9
     \\/     M anipulation  |
\*---------------------------------------------------------------------------*/
FoamFile
{
    format      ascii;
    class       volScalarField;
    location    "0.5";
    object      p;
}
// * * * * * * * * * * * * * * * * * * * * * * * * * * * * * * * * * * * * * //

dimensions      [ 0 2 -2 0 0 0 0 ];

internalField   nonuniform List<scalar> 
400
(
-9.31541e-09
-0.000254869
-0.000658191
-0.0012084
-0.00193139
-0.00286459
-0.00404648
-0.00551448
-0.00732072
-0.00952107
-0.0120805
-0.0145865
-0.015787
-0.0133358
-0.00445474
0.0121829
0.0341583
0.0532259
0.0603584
0.0540612
1.05339e-05
-0.00022872
-0.000605394
-0.00113949
-0.0018456
-0.00274857
-0.00386901
-0.00522415
-0.00683856
-0.00874618
-0.0109426
-0.0131759
-0.0144878
-0.0127649
-0.00512958
0.0102205
0.0311444
0.0500895
0.0579468
0.0528496
9.41552e-05
-0.000160328
-0.000515636
-0.00103161
-0.0017166
-0.00258568
-0.00364481
-0.00489612
-0.00635876
-0.00811122
-0.0103135
-0.0129949
-0.0153829
-0.0152173
-0.00922908
0.00484348
0.0254377
0.0454336
0.0550582
0.0515474
0.000242347
-5.21754e-05
-0.000391023
-0.00088782
-0.00154913
-0.00238269
-0.00338393
-0.00455143
-0.00593654
-0.00775592
-0.0104781
-0.0144627
-0.018894
-0.0210021
-0.0170345
-0.00444374
0.0159006
0.0377287
0.0505005
0.0502842
0.000435045
8.42766e-05
-0.000239808
-0.000717103
-0.00135331
-0.00214983
-0.00309645
-0.00420562
-0.00561084
-0.00776776
-0.011553
-0.0175882
-0.0247281
-0.0294893
-0.0277806
-0.0169962
0.00273136
0.0264945
0.0435395
0.0487825
0.000648027
0.000231088
-7.82447e-05
-0.000536652
-0.00114685
-0.0019042
-0.00279885
-0.00387917
-0.0054153
-0.00818388
-0.0134879
-0.0220443
-0.0321369
-0.0395533
-0.0400967
-0.031327
-0.0127569
0.0124114
0.0340805
0.0462151
0.000851038
0.000363575
6.98645e-05
-0.000370218
-0.000952192
-0.00166493
-0.00250536
-0.00358048
-0.00534388
-0.00893239
-0.0160112
-0.0272031
-0.0401055
-0.0498895
-0.0524462
-0.0456865
-0.0287745
-0.00314424
0.0224398
0.0417161
0.00100761
0.000449304
0.000174021
-0.000246122
-0.000793397
-0.00144898
-0.0022222
-0.0032978
-0.00534025
-0.0098347
-0.0186942
-0.0323053
-0.0475983
-0.0592923
-0.063473
-0.0585112
-0.043565
-0.0185048
0.00950073
0.0351171
0.00107378
0.000448476
0.000198587
-0.000194747
-0.000692928
-0.0012677
-0.00194509
-0.0029995
-0.00530927
-0.0106543
-0.0210723
-0.0366504
-0.0537704
-0.0668621
-0.0722354
-0.0687197
-0.0557837
-0.0320988
-0.00333572
0.027254
0.000997305
0.000314603
0.000104849
-0.000245697
-0.000668618
-0.00112459
-0.00165934
-0.00264054
-0.0051412
-0.0111591
-0.0227545
-0.0397273
-0.0580821
-0.0720934
-0.0782748
-0.075798
-0.0646593
-0.0427146
-0.0144801
0.0197183
0.000715353
-5.12045e-06
-0.000146864
-0.000425362
-0.00073197
-0.00101543
-0.00134354
-0.00217392
-0.00474044
-0.0111759
-0.023493
-0.0412696
-0.0603169
-0.074853
-0.0815457
-0.0797123
-0.0699666
-0.0496067
-0.0225342
0.0145109
0.000149696
-0.000569893
-0.000595199
-0.0007554
-0.000888489
-0.000931402
-0.000976657
-0.00156479
-0.0040514
-0.0106263
-0.023213
-0.0412597
-0.0605444
-0.075303
-0.0822999
-0.0807641
-0.0718874
-0.0524781
-0.0266096
0.0139345
-0.000802293
-0.00144562
-0.00127544
-0.00125176
-0.00113982
-0.000864894
-0.000547511
-0.000803813
-0.00307546
-0.00954145
-0.0220146
-0.0399147
-0.0590631
-0.0738039
-0.0809645
-0.0794945
-0.0708143
-0.0514015
-0.0263397
0.020512
-0.0022842
-0.00270419
-0.00221475
-0.00192199
-0.00148551
-0.000816142
-6.48908e-05
8.24535e-05
-0.00187707
-0.00805725
-0.0201924
-0.037558
-0.0563122
-0.0709133
-0.0781478
-0.0764661
-0.0672469
-0.0467611
-0.0210386
0.0363464
-0.00451236
-0.00441697
-0.00341964
-0.00275524
-0.00191831
-0.000794763
0.000435578
0.00102521
-0.000579361
-0.00638813
-0.0180337
-0.034703
-0.0529264
-0.0672739
-0.0744662
-0.0722569
-0.0617341
-0.0387278
-0.00840414
0.0620403
-0.00784706
-0.00662924
-0.00484821
-0.00369556
-0.00240097
-0.000802929
0.000900002
0.00191867
0.000655964
-0.00479385
-0.0159232
-0.0318642
-0.0494942
-0.0634764
-0.0704554
-0.0673141
-0.054473
-0.0265216
0.0130489
0.0991388
-0.0129672
-0.00929653
-0.00637374
-0.00458783
-0.00280863
-0.000780998
0.00130657
0.00266476
0.00163996
-0.00351257
-0.0141806
-0.0294231
-0.0464237
-0.0599196
-0.0664671
-0.0619146
-0.0455796
-0.00971904
0.0444953
0.151982
-0.0211204
-0.0121787
-0.00763992
-0.00501682
-0.00280218
-0.000491587
0.00178965
0.00326593
0.00231611
-0.00265437
-0.0129374
-0.0275186
-0.0438572
-0.0567592
-0.0627221
-0.0563799
-0.0356585
0.0109973
0.0859621
0.224721
-0.0332525
-0.0138301
-0.00669527
-0.00375653
-0.00157139
0.000656297
0.00277897
0.00406839
0.0029718
-0.00197272
-0.0119557
-0.0259459
-0.0416509
-0.0539677
-0.0594505
-0.0514691
-0.0266754
0.0317733
0.132057
0.314308
-0.0548772
-0.00654501
0.000953023
0.000872162
0.00174296
0.00322525
0.00471588
0.00548602
0.00405329
-0.00100519
-0.0108079
-0.0244007
-0.0396584
-0.0515779
-0.0568268
-0.0482969
-0.0214865
0.0449891
0.167205
0.397
)
;

boundaryField
{
    movingWall
    {
        type            zeroGradient;
    }
    fixedWalls
    {
        type            zeroGradient;
    }
    frontAndBack
    {
        type            empty;
    }
}


// ************************************************************************* //
