/*--------------------------------*- C++ -*----------------------------------*\
  =========                 |
  \\      /  F ield         | OpenFOAM: The Open Source CFD Toolbox
   \\    /   O peration     | Website:  https://openfoam.org
    \\  /    A nd           | Version:  9
     \\/     M anipulation  |
\*---------------------------------------------------------------------------*/
FoamFile
{
    format      ascii;
    class       surfaceScalarField;
    location    "0.5";
    object      phi;
}
// * * * * * * * * * * * * * * * * * * * * * * * * * * * * * * * * * * * * * //

dimensions      [ 0 3 -1 0 0 0 0 ];

internalField   nonuniform List<scalar> 
760
(
1.85531e-08
-1.85523e-08
2.25237e-08
-3.97051e-09
1.8479e-08
4.04448e-09
1.2192e-08
6.28676e-09
4.27974e-09
7.91182e-09
-9.20085e-09
1.34802e-08
-3.59462e-08
2.67453e-08
-8.86585e-08
5.27124e-08
-1.87833e-07
9.91746e-08
-3.6671e-07
1.78877e-07
-6.73173e-07
3.06463e-07
-1.15313e-06
4.79957e-07
-1.80393e-06
6.50797e-07
-2.51602e-06
7.12094e-07
-3.05362e-06
5.37598e-07
-3.12676e-06
7.31406e-08
-2.4935e-06
-6.3326e-07
-1.26103e-06
-1.23247e-06
-1.49256e-07
-1.11178e-06
-1.49256e-07
2.28827e-08
-4.1435e-08
1.192e-08
6.99195e-09
-2.04014e-08
3.63652e-08
-6.22849e-08
4.81696e-08
-1.14031e-07
5.96574e-08
-1.87961e-07
8.74101e-08
-3.08749e-07
1.47533e-07
-5.16644e-07
2.60608e-07
-8.7296e-07
4.5549e-07
-1.46146e-06
7.67376e-07
-2.36523e-06
1.21023e-06
-3.5928e-06
1.70753e-06
-4.98045e-06
2.03844e-06
-6.17606e-06
1.9077e-06
-6.76825e-06
1.12979e-06
-6.43866e-06
-2.56446e-07
-5.05528e-06
-2.01664e-06
-2.81704e-06
-3.47071e-06
-6.50964e-07
-3.27785e-06
-8.0022e-07
6.32799e-09
-4.77632e-08
-3.85441e-08
5.1864e-08
-1.15371e-07
1.13192e-07
-2.08954e-07
1.41752e-07
-3.22577e-07
1.7328e-07
-4.7816e-07
2.42993e-07
-7.17666e-07
3.8704e-07
-1.10725e-06
6.50188e-07
-1.73881e-06
1.08705e-06
-2.71312e-06
1.74169e-06
-4.07653e-06
2.57365e-06
-5.71322e-06
3.34422e-06
-7.29193e-06
3.61716e-06
-8.3854e-06
3.00117e-06
-8.68503e-06
1.42941e-06
-8.05478e-06
-8.86693e-07
-6.45487e-06
-3.61655e-06
-3.98228e-06
-5.94331e-06
-1.26555e-06
-5.99458e-06
-2.06577e-06
-2.21063e-08
-2.56569e-08
-1.16548e-07
1.46305e-07
-2.49901e-07
2.46545e-07
-4.05271e-07
2.97121e-07
-5.90427e-07
3.58436e-07
-8.37071e-07
4.89637e-07
-1.20226e-06
7.52227e-07
-1.76994e-06
1.21787e-06
-2.64121e-06
1.95831e-06
-3.89217e-06
2.99266e-06
-5.48534e-06
4.16681e-06
-7.18488e-06
5.04376e-06
-8.60093e-06
5.03321e-06
-9.39846e-06
3.7987e-06
-9.45821e-06
1.48917e-06
-8.7784e-06
-1.5665e-06
-7.30853e-06
-5.08642e-06
-4.95923e-06
-8.29261e-06
-1.95614e-06
-8.99766e-06
-4.02192e-06
-5.94776e-08
3.38207e-08
-2.13447e-07
3.00275e-07
-4.10556e-07
4.43654e-07
-6.32132e-07
5.18697e-07
-8.90622e-07
6.16926e-07
-1.22581e-06
8.24827e-07
-1.70409e-06
1.2305e-06
-2.41377e-06
1.92755e-06
-3.44107e-06
2.98562e-06
-4.81042e-06
4.36201e-06
-6.40084e-06
5.75723e-06
-7.91889e-06
6.56182e-06
-9.02258e-06
6.1369e-06
-9.53154e-06
4.30765e-06
-9.47154e-06
1.42917e-06
-8.8886e-06
-2.14944e-06
-7.69732e-06
-6.2777e-06
-5.65003e-06
-1.03399e-05
-2.62513e-06
-1.20226e-05
-6.64705e-06
-1.03025e-07
1.36846e-07
-3.22736e-07
5.19986e-07
-5.86511e-07
7.07429e-07
-8.73343e-07
8.05529e-07
-1.19929e-06
9.42873e-07
-1.60849e-06
1.23403e-06
-2.16837e-06
1.79038e-06
-2.95751e-06
2.71669e-06
-4.0311e-06
4.0592e-06
-5.35875e-06
5.68967e-06
-6.76787e-06
7.16635e-06
-7.97379e-06
7.76773e-06
-8.73577e-06
6.89888e-06
-9.01054e-06
4.58242e-06
-8.89787e-06
1.3165e-06
-8.45381e-06
-2.59349e-06
-7.58593e-06
-7.14558e-06
-5.94434e-06
-1.19815e-05
-3.14489e-06
-1.4822e-05
-9.79193e-06
-1.51023e-07
2.87869e-07
-4.39679e-07
8.08643e-07
-7.69183e-07
1.03693e-06
-1.11538e-06
1.15173e-06
-1.49581e-06
1.3233e-06
-1.95395e-06
1.69216e-06
-2.54982e-06
2.38626e-06
-3.3423e-06
3.50917e-06
-4.35136e-06
5.06826e-06
-5.50638e-06
6.84469e-06
-6.62258e-06
8.28254e-06
-7.46816e-06
8.61332e-06
-7.91116e-06
7.34188e-06
-7.99988e-06
4.67114e-06
-7.86053e-06
1.17715e-06
-7.55709e-06
-2.89693e-06
-7.01756e-06
-7.68512e-06
-5.83515e-06
-1.31639e-05
-3.40897e-06
-1.72482e-05
-1.32009e-05
-2.02626e-07
4.90495e-07
-5.61121e-07
1.16714e-06
-9.52154e-07
1.42797e-06
-1.34761e-06
1.54719e-06
-1.76385e-06
1.73954e-06
-2.23865e-06
2.16696e-06
-2.81832e-06
2.96593e-06
-3.53809e-06
4.22894e-06
-4.38834e-06
5.91851e-06
-5.27992e-06
7.73626e-06
-6.04859e-06
9.05122e-06
-6.53588e-06
9.10061e-06
-6.70259e-06
7.50859e-06
-6.64619e-06
4.61473e-06
-6.49586e-06
1.02682e-06
-6.32617e-06
-3.06662e-06
-6.0985e-06
-7.9128e-06
-5.38678e-06
-1.38756e-05
-3.41162e-06
-1.92233e-05
-1.66125e-05
-2.57823e-07
7.48319e-07
-6.85476e-07
1.59479e-06
-1.13122e-06
1.87371e-06
-1.56265e-06
1.97861e-06
-1.99251e-06
2.1694e-06
-2.44894e-06
2.62339e-06
-2.9613e-06
3.47829e-06
-3.54262e-06
4.81026e-06
-4.16447e-06
6.54036e-06
-4.74004e-06
8.31184e-06
-5.14743e-06
9.4586e-06
-5.30555e-06
9.25873e-06
-5.2457e-06
7.44874e-06
-5.08399e-06
4.45302e-06
-4.94113e-06
8.83964e-07
-4.89748e-06
-3.11026e-06
-4.94921e-06
-7.86107e-06
-4.68881e-06
-1.4136e-05
-3.20841e-06
-2.07037e-05
-1.98209e-05
-3.17541e-07
1.06586e-06
-8.12774e-07
2.09002e-06
-1.30441e-06
2.36534e-06
-1.75651e-06
2.43072e-06
-2.1768e-06
2.58969e-06
-2.5815e-06
3.02808e-06
-2.98267e-06
3.87947e-06
-3.37583e-06
5.20342e-06
-3.72541e-06
6.88993e-06
-3.96311e-06
8.54955e-06
-4.02072e-06
9.51621e-06
-3.88984e-06
9.12786e-06
-3.65233e-06
7.21122e-06
-3.42398e-06
4.22467e-06
-3.31085e-06
7.70832e-07
-3.38692e-06
-3.03419e-06
-3.67628e-06
-7.57171e-06
-3.82695e-06
-1.39854e-05
-2.857e-06
-2.16737e-05
-2.26779e-05
-3.83878e-07
1.44974e-06
-9.44689e-07
2.65083e-06
-1.47166e-06
2.89232e-06
-1.92818e-06
2.88724e-06
-2.31699e-06
2.9785e-06
-2.64192e-06
3.35302e-06
-2.89932e-06
4.13686e-06
-3.07271e-06
5.37682e-06
-3.12931e-06
6.94653e-06
-3.02935e-06
8.44958e-06
-2.76163e-06
9.24849e-06
-2.38224e-06
8.74847e-06
-2.00804e-06
6.83702e-06
-1.74568e-06
3.96231e-06
-1.68415e-06
7.09299e-07
-1.87541e-06
-2.84293e-06
-2.35851e-06
-7.08861e-06
-2.86702e-06
-1.34769e-05
-2.40366e-06
-2.21371e-05
-2.50816e-05
-4.6048e-07
1.91022e-06
-1.08443e-06
3.27478e-06
-1.63403e-06
3.44192e-06
-2.07797e-06
3.33118e-06
-2.41608e-06
3.3166e-06
-2.64103e-06
3.57798e-06
-2.73573e-06
4.23156e-06
-2.67625e-06
5.31733e-06
-2.43897e-06
6.70925e-06
-2.01681e-06
8.02742e-06
-1.4535e-06
8.68518e-06
-8.63536e-07
8.1585e-06
-3.82852e-07
6.35634e-06
-1.0433e-07
3.68379e-06
-1.00744e-07
7.05714e-07
-4.1123e-07
-2.53244e-06
-1.04004e-06
-6.4598e-06
-1.84434e-06
-1.26726e-05
-1.88055e-06
-2.21008e-05
-2.69621e-05
-5.53118e-07
2.46334e-06
-1.23627e-06
3.95793e-06
-1.79166e-06
3.99732e-06
-2.20383e-06
3.74335e-06
-2.47436e-06
3.58713e-06
-2.58765e-06
3.69127e-06
-2.51571e-06
4.15961e-06
-2.22913e-06
5.03075e-06
-1.71526e-06
6.19538e-06
-9.98251e-07
7.31041e-06
-1.79907e-07
7.86684e-06
6.09271e-07
7.36932e-06
1.19571e-06
5.7699e-06
1.47645e-06
3.40304e-06
1.41133e-06
7.70839e-07
1.00971e-06
-2.13083e-06
2.78785e-07
-5.72887e-06
-7.81156e-07
-1.16126e-05
-1.28089e-06
-2.16011e-05
-2.8243e-05
-6.70686e-07
3.13402e-06
-1.40426e-06
4.6915e-06
-1.93929e-06
4.53234e-06
-2.29327e-06
4.09734e-06
-2.47743e-06
3.77129e-06
-2.47316e-06
3.687e-06
-2.24485e-06
3.9313e-06
-1.75696e-06
4.54287e-06
-1.00407e-06
5.44249e-06
-3.23437e-08
6.33868e-06
1.02595e-06
6.80855e-06
1.98917e-06
6.4061e-06
2.66429e-06
5.09478e-06
2.96447e-06
3.10287e-06
2.86728e-06
8.68021e-07
2.40103e-06
-1.66457e-06
1.58798e-06
-4.91582e-06
3.14948e-07
-1.03396e-05
-4.44117e-07
-2.0842e-05
-2.86871e-05
-8.27008e-07
3.96103e-06
-1.58834e-06
5.45283e-06
-2.05522e-06
4.99922e-06
-2.30457e-06
4.34668e-06
-2.36977e-06
3.83649e-06
-2.23765e-06
3.55489e-06
-1.87043e-06
3.56408e-06
-1.22502e-06
3.89746e-06
-2.93272e-07
4.51074e-06
8.68385e-07
5.17703e-06
2.10942e-06
5.56751e-06
3.22704e-06
5.28848e-06
4.01392e-06
4.30791e-06
4.37798e-06
2.73881e-06
4.31152e-06
9.34481e-07
3.84234e-06
-1.1954e-06
3.02958e-06
-4.10305e-06
1.73059e-06
-9.04059e-06
4.13008e-07
-1.95245e-05
-2.82741e-05
-1.04396e-06
5.00499e-06
-1.77046e-06
6.17934e-06
-2.07021e-06
5.29897e-06
-2.12092e-06
4.39739e-06
-1.99718e-06
3.71275e-06
-1.70147e-06
3.25918e-06
-1.20096e-06
3.06357e-06
-4.44809e-07
3.14131e-06
5.82892e-07
3.48304e-06
1.84621e-06
3.91371e-06
3.19908e-06
4.21464e-06
4.43823e-06
4.04933e-06
5.35595e-06
3.39018e-06
5.84264e-06
2.25212e-06
5.89228e-06
8.84847e-07
5.50009e-06
-8.03206e-07
4.71997e-06
-3.32293e-06
3.3033e-06
-7.62393e-06
1.2891e-06
-1.75103e-05
-2.6985e-05
-1.34281e-06
6.3478e-06
-1.85698e-06
6.6935e-06
-1.76796e-06
5.20996e-06
-1.43324e-06
4.06267e-06
-9.87631e-07
3.26714e-06
-4.47177e-07
2.71873e-06
2.16699e-07
2.39969e-06
1.05256e-06
2.30545e-06
2.10609e-06
2.42951e-06
3.36989e-06
2.64991e-06
4.7398e-06
2.84473e-06
6.03538e-06
2.75375e-06
7.07231e-06
2.35325e-06
7.71422e-06
1.61021e-06
7.93873e-06
6.6033e-07
7.68032e-06
-5.44795e-07
6.92479e-06
-2.56741e-06
5.30692e-06
-6.00606e-06
2.52089e-06
-1.47242e-05
-2.44641e-05
-1.65103e-06
7.99883e-06
-1.41389e-06
6.45636e-06
-4.55267e-07
4.25134e-06
5.42383e-07
3.06502e-06
1.46632e-06
2.3432e-06
2.33783e-06
1.84721e-06
3.19862e-06
1.5389e-06
4.11169e-06
1.39238e-06
5.1425e-06
1.3987e-06
6.31477e-06
1.47763e-06
7.59134e-06
1.56816e-06
8.83191e-06
1.51318e-06
9.89775e-06
1.28742e-06
1.06343e-05
8.73633e-07
1.09882e-05
3.06431e-07
1.08424e-05
-3.98996e-07
1.00377e-05
-1.76271e-06
8.11138e-06
-4.07971e-06
4.31786e-06
-1.09307e-05
-2.01463e-05
-1.09549e-06
9.09433e-06
1.58948e-06
3.77139e-06
3.85162e-06
1.9892e-06
5.53235e-06
1.3843e-06
6.87041e-06
1.00514e-06
7.97812e-06
7.39499e-07
8.93785e-06
5.79171e-07
9.83044e-06
4.99792e-07
1.07423e-05
4.86877e-07
1.17139e-05
5.05979e-07
1.27546e-05
5.27526e-07
1.3769e-05
4.9877e-07
1.46603e-05
3.9609e-07
1.52967e-05
2.3721e-07
1.5591e-05
1.21769e-08
1.54476e-05
-2.5565e-07
1.45157e-05
-8.30751e-07
1.23009e-05
-1.86493e-06
7.15649e-06
-5.78632e-06
-1.29898e-05
9.09433e-06
1.28657e-05
1.48549e-05
1.62392e-05
1.72443e-05
1.79838e-05
1.8563e-05
1.90628e-05
1.95497e-05
2.00557e-05
2.05832e-05
2.1082e-05
2.14781e-05
2.17153e-05
2.17274e-05
2.14718e-05
2.0641e-05
1.87761e-05
1.29898e-05
)
;

boundaryField
{
    movingWall
    {
        type            calculated;
        value           uniform 0;
    }
    fixedWalls
    {
        type            calculated;
        value           uniform 0;
    }
    frontAndBack
    {
        type            empty;
        value           nonuniform 0 ( );
    }
}


// ************************************************************************* //
