/*--------------------------------*- C++ -*----------------------------------*\
  =========                 |
  \\      /  F ield         | OpenFOAM: The Open Source CFD Toolbox
   \\    /   O peration     | Website:  https://openfoam.org
    \\  /    A nd           | Version:  9
     \\/     M anipulation  |
\*---------------------------------------------------------------------------*/
FoamFile
{
    format      ascii;
    class       volVectorField;
    location    "0.5";
    object      U;
}
// * * * * * * * * * * * * * * * * * * * * * * * * * * * * * * * * * * * * * //

dimensions      [ 0 1 -1 0 0 0 0 ];

internalField   nonuniform List<vector> 
400
(
(0.000457823 -0.000198328 0)
(0.000939939 -8.45324e-05 0)
(0.000863633 -3.16078e-05 0)
(0.00063637 -2.67382e-05 0)
(0.000368784 -3.06982e-05 0)
(-1.52681e-06 -1.33309e-05 0)
(-0.000703467 4.50282e-05 0)
(-0.00212984 0.0001713 0)
(-0.00491775 0.000416923 0)
(-0.0101399 0.000898757 0)
(-0.0195439 0.00182739 0)
(-0.0353631 0.00339683 0)
(-0.0588802 0.00544411 0)
(-0.0878425 0.00707103 0)
(-0.114632 0.00673077 0)
(-0.127557 0.0031315 0)
(-0.115611 -0.00306604 0)
(-0.0763363 -0.0093297 0)
(-0.0232296 -0.00865189 0)
(0.00333275 -0.000409479 0)
(0.00069756 -0.000644171 0)
(0.00102182 -0.000100158 0)
(-4.47172e-05 0.000217408 0)
(-0.00157132 0.000321442 0)
(-0.00338096 0.000406218 0)
(-0.00571788 0.000649128 0)
(-0.00929974 0.00120977 0)
(-0.0153754 0.00229835 0)
(-0.0259237 0.00424557 0)
(-0.0439254 0.00757084 0)
(-0.0732871 0.0128044 0)
(-0.117056 0.0196465 0)
(-0.172888 0.0257915 0)
(-0.22905 0.0269572 0)
(-0.267297 0.0191533 0)
(-0.271596 0.00147654 0)
(-0.23452 -0.0222749 0)
(-0.159258 -0.0425442 0)
(-0.0638076 -0.039055 0)
(-0.00166461 -0.00696277 0)
(0.000521646 -0.000989295 0)
(-0.000119036 0.00038393 0)
(-0.00288328 0.00124193 0)
(-0.00633772 0.00161367 0)
(-0.0103602 0.001993 0)
(-0.0154393 0.00286468 0)
(-0.0228127 0.00471656 0)
(-0.0345838 0.00817552 0)
(-0.0539148 0.0141 0)
(-0.0850099 0.0234408 0)
(-0.131991 0.0362547 0)
(-0.195012 0.0496303 0)
(-0.264737 0.0567592 0)
(-0.322624 0.0501202 0)
(-0.351064 0.0267373 0)
(-0.341867 -0.0107359 0)
(-0.29397 -0.0557523 0)
(-0.210891 -0.0926941 0)
(-0.10431 -0.0892355 0)
(-0.0117256 -0.0253317 0)
(8.40083e-05 -0.000881893 0)
(-0.00208907 0.00172261 0)
(-0.00708916 0.003307 0)
(-0.0128955 0.00407924 0)
(-0.0195168 0.00496418 0)
(-0.0277233 0.00688128 0)
(-0.0392466 0.0107905 0)
(-0.0568819 0.0178685 0)
(-0.084474 0.0294693 0)
(-0.126276 0.0464247 0)
(-0.184624 0.0669635 0)
(-0.255087 0.0841719 0)
(-0.323001 0.0872503 0)
(-0.369713 0.0684536 0)
(-0.385408 0.0286985 0)
(-0.370229 -0.0261613 0)
(-0.324458 -0.0893557 0)
(-0.247759 -0.143823 0)
(-0.144201 -0.148734 0)
(-0.0255224 -0.0566827 0)
(-0.000523 -9.6443e-05 0)
(-0.00462192 0.00417451 0)
(-0.012227 0.00659662 0)
(-0.0206108 0.00784981 0)
(-0.029958 0.00941892 0)
(-0.0413047 0.0127485 0)
(-0.0567496 0.0193411 0)
(-0.0794325 0.0308967 0)
(-0.113153 0.0489422 0)
(-0.161093 0.0733701 0)
(-0.222903 0.0995999 0)
(-0.290385 0.116821 0)
(-0.347292 0.112317 0)
(-0.379634 0.0808512 0)
(-0.386241 0.0278453 0)
(-0.371364 -0.0397484 0)
(-0.333731 -0.117221 0)
(-0.269311 -0.189525 0)
(-0.176547 -0.210917 0)
(-0.040912 -0.102368 0)
(-0.00124995 0.00151258 0)
(-0.00754024 0.00789842 0)
(-0.0179587 0.0112099 0)
(-0.0289593 0.0129583 0)
(-0.040914 0.0153152 0)
(-0.0550424 0.0202939 0)
(-0.0735862 0.0299164 0)
(-0.0995826 0.046228 0)
(-0.136128 0.0704711 0)
(-0.184796 0.100948 0)
(-0.242888 0.130062 0)
(-0.300396 0.144174 0)
(-0.342575 0.130741 0)
(-0.361613 0.0883594 0)
(-0.362412 0.0259581 0)
(-0.350051 -0.0501373 0)
(-0.322291 -0.138165 0)
(-0.272579 -0.227424 0)
(-0.195709 -0.270757 0)
(-0.0532224 -0.161577 0)
(-0.00207264 0.00404253 0)
(-0.010727 0.0129821 0)
(-0.0240265 0.0171635 0)
(-0.0375142 0.0193335 0)
(-0.0517304 0.02246 0)
(-0.0679408 0.0291105 0)
(-0.0882585 0.0417166 0)
(-0.115217 0.0624148 0)
(-0.150854 0.0917692 0)
(-0.195233 0.126227 0)
(-0.244303 0.155589 0)
(-0.288138 0.164727 0)
(-0.315154 0.142715 0)
(-0.323032 0.0920311 0)
(-0.319733 0.0236946 0)
(-0.310152 -0.0572081 0)
(-0.292588 -0.151907 0)
(-0.258355 -0.255921 0)
(-0.200946 -0.324303 0)
(-0.0583448 -0.229707 0)
(-0.00298552 0.00757029 0)
(-0.0141153 0.0194621 0)
(-0.030248 0.0244018 0)
(-0.0459467 0.0268104 0)
(-0.0618857 0.0305274 0)
(-0.0792157 0.0386047 0)
(-0.0996729 0.0537254 0)
(-0.125041 0.0778798 0)
(-0.156282 0.110743 0)
(-0.192437 0.147011 0)
(-0.229203 0.174616 0)
(-0.258087 0.178119 0)
(-0.271184 0.148891 0)
(-0.270136 0.092602 0)
(-0.263789 0.021229 0)
(-0.256909 -0.061261 0)
(-0.24927 -0.158804 0)
(-0.23002 -0.274512 0)
(-0.194512 -0.369085 0)
(-0.0557256 -0.300202 0)
(-0.00400188 0.0121656 0)
(-0.0176873 0.0273374 0)
(-0.0365151 0.0328113 0)
(-0.0540305 0.035149 0)
(-0.0710163 0.0390974 0)
(-0.08836 0.0480824 0)
(-0.107251 0.0648775 0)
(-0.128656 0.0911728 0)
(-0.15268 0.125744 0)
(-0.17795 0.161898 0)
(-0.200812 0.186503 0)
(-0.21501 0.184662 0)
(-0.216166 0.15011 0)
(-0.208354 0.090713 0)
(-0.200045 0.0187275 0)
(-0.195875 -0.0626923 0)
(-0.197474 -0.159639 0)
(-0.191654 -0.283523 0)
(-0.179516 -0.40378 0)
(-0.0473003 -0.367866 0)
(-0.00515782 0.0179064 0)
(-0.0214779 0.0365828 0)
(-0.0427941 0.0422329 0)
(-0.0616422 0.0440585 0)
(-0.0789276 0.0477057 0)
(-0.0951714 0.0568423 0)
(-0.11094 0.0742025 0)
(-0.126454 0.101127 0)
(-0.14128 0.135648 0)
(-0.154175 0.17017 0)
(-0.162751 0.19125 0)
(-0.163346 0.185036 0)
(-0.154685 0.147295 0)
(-0.142091 0.0870592 0)
(-0.133092 0.016499 0)
(-0.131745 -0.0618224 0)
(-0.141725 -0.15538 0)
(-0.146968 -0.283777 0)
(-0.158817 -0.427833 0)
(-0.0349695 -0.429455 0)
(-0.00652025 0.0249011 0)
(-0.0255821 0.0471615 0)
(-0.0491199 0.0524729 0)
(-0.0687452 0.0532207 0)
(-0.0855732 0.0558937 0)
(-0.0997169 0.0642585 0)
(-0.111128 0.0809243 0)
(-0.119414 0.106926 0)
(-0.123913 0.139819 0)
(-0.1239 0.171628 0)
(-0.118587 0.189223 0)
(-0.106945 0.180039 0)
(-0.0903414 0.141335 0)
(-0.074571 0.082341 0)
(-0.0661614 0.0149492 0)
(-0.0677836 -0.0587946 0)
(-0.0853603 -0.147027 0)
(-0.0987191 -0.276371 0)
(-0.13459 -0.441314 0)
(-0.0198674 -0.482817 0)
(-0.00819954 0.0333157 0)
(-0.0301642 0.0590307 0)
(-0.0555783 0.0633022 0)
(-0.0753407 0.0623042 0)
(-0.0909756 0.0632473 0)
(-0.102215 0.0698419 0)
(-0.108464 0.0845209 0)
(-0.108852 0.108122 0)
(-0.102695 0.138044 0)
(-0.0899996 0.166429 0)
(-0.0716559 0.180962 0)
(-0.0491082 0.170441 0)
(-0.0259613 0.132916 0)
(-0.00802189 0.0770711 0)
(-0.00117847 0.0144325 0)
(-0.00577591 -0.0535805 0)
(-0.0302826 -0.135513 0)
(-0.0484382 -0.262498 0)
(-0.108063 -0.445059 0)
(-0.002366 -0.526093 0)
(-0.010369 0.0434115 0)
(-0.0354689 0.0721328 0)
(-0.0622602 0.0744353 0)
(-0.0813573 0.0709556 0)
(-0.0950442 0.0694107 0)
(-0.10278 0.0732737 0)
(-0.103544 0.0847589 0)
(-0.096073 0.104631 0)
(-0.0797259 0.130475 0)
(-0.0552238 0.154989 0)
(-0.0250144 0.167131 0)
(0.00725491 0.156735 0)
(0.0359954 0.122424 0)
(0.0557967 0.0716746 0)
(0.0608078 0.0152115 0)
(0.0538041 -0.0463198 0)
(0.0231058 -0.12161 0)
(0.00347972 -0.243417 0)
(-0.0791997 -0.440654 0)
(0.0181782 -0.557127 0)
(-0.0132957 0.0556026 0)
(-0.0418329 0.0863539 0)
(-0.0691553 0.0854648 0)
(-0.0864021 0.0787429 0)
(-0.0971753 0.0740476 0)
(-0.100863 0.0743916 0)
(-0.096223 0.081704 0)
(-0.0816552 0.0967572 0)
(-0.0564585 0.117626 0)
(-0.0217499 0.137927 0)
(0.0186446 0.148264 0)
(0.059454 0.139239 0)
(0.0933872 0.109937 0)
(0.115639 0.0660406 0)
(0.11937 0.0170487 0)
(0.111671 -0.0374991 0)
(0.0760629 -0.106167 0)
(0.05763 -0.220625 0)
(-0.0462617 -0.429065 0)
(0.0437046 -0.574004 0)
(-0.0173905 0.0705596 0)
(-0.0496842 0.10141 0)
(-0.0758674 0.0957156 0)
(-0.0891672 0.0850016 0)
(-0.0953487 0.0766983 0)
(-0.094048 0.0730766 0)
(-0.084128 0.0756613 0)
(-0.0637413 0.085198 0)
(-0.0319609 0.100451 0)
(0.0103202 0.116226 0)
(0.0584765 0.12497 0)
(0.106494 0.118234 0)
(0.145324 0.0952771 0)
(0.171568 0.0595093 0)
(0.175669 0.018917 0)
(0.170538 -0.0280074 0)
(0.131883 -0.0899816 0)
(0.116532 -0.194919 0)
(-0.00549918 -0.408321 0)
(0.0773285 -0.576986 0)
(-0.0232836 0.0893873 0)
(-0.0594523 0.116586 0)
(-0.08071 0.103935 0)
(-0.085849 0.0884758 0)
(-0.0840386 0.0764402 0)
(-0.0755357 0.0689497 0)
(-0.0597034 0.0669263 0)
(-0.0345779 0.0709115 0)
(0.00104062 0.0804016 0)
(0.0473311 0.0914102 0)
(0.0995855 0.0984676 0)
(0.152887 0.0942015 0)
(0.195864 0.0780022 0)
(0.228313 0.0509874 0)
(0.235047 0.019278 0)
(0.23677 -0.0191657 0)
(0.196732 -0.0738911 0)
(0.185049 -0.167811 0)
(0.0459893 -0.375638 0)
(0.12077 -0.563677 0)
(-0.0318498 0.113563 0)
(-0.070812 0.129999 0)
(-0.0772342 0.107156 0)
(-0.0655787 0.0864083 0)
(-0.0494135 0.0712375 0)
(-0.029416 0.0608235 0)
(-0.00551033 0.0552647 0)
(0.0244709 0.0546955 0)
(0.0617343 0.0590311 0)
(0.108517 0.0653719 0)
(0.160174 0.0704093 0)
(0.215869 0.0680806 0)
(0.260693 0.0579188 0)
(0.300708 0.0394447 0)
(0.311132 0.0166151 0)
(0.323007 -0.0122449 0)
(0.282081 -0.0576148 0)
(0.273252 -0.135544 0)
(0.115234 -0.324917 0)
(0.177976 -0.525011 0)
(-0.0434446 0.142478 0)
(-0.0757615 0.134269 0)
(-0.0402456 0.0966473 0)
(0.00213993 0.0731874 0)
(0.0406247 0.0575133 0)
(0.0767807 0.0465079 0)
(0.111106 0.0396819 0)
(0.146656 0.0366833 0)
(0.184185 0.0374419 0)
(0.228889 0.0400128 0)
(0.275275 0.0427857 0)
(0.329184 0.04155 0)
(0.371137 0.0358334 0)
(0.416244 0.0248669 0)
(0.427728 0.01032 0)
(0.44863 -0.00797949 0)
(0.404832 -0.0406885 0)
(0.395115 -0.0959203 0)
(0.215119 -0.251293 0)
(0.25796 -0.446746 0)
(-0.0701355 0.189072 0)
(0.00562684 0.107407 0)
(0.112894 0.0636018 0)
(0.191065 0.0455351 0)
(0.250514 0.0341904 0)
(0.299246 0.0260546 0)
(0.339813 0.0208456 0)
(0.37703 0.0180576 0)
(0.411166 0.0174782 0)
(0.449768 0.0180187 0)
(0.486279 0.0189275 0)
(0.531505 0.0182334 0)
(0.563854 0.0152886 0)
(0.604616 0.0101482 0)
(0.610791 0.00233052 0)
(0.632199 -0.00590276 0)
(0.583312 -0.0239172 0)
(0.567811 -0.0518469 0)
(0.37119 -0.153108 0)
(0.380649 -0.311492 0)
(0.34753 0.127487 0)
(0.446419 0.0687854 0)
(0.554543 0.035721 0)
(0.626314 0.0214181 0)
(0.673115 0.0139452 0)
(0.706942 0.00937021 0)
(0.732368 0.00661649 0)
(0.753941 0.00508777 0)
(0.772326 0.0044517 0)
(0.792681 0.00431726 0)
(0.811024 0.00433413 0)
(0.833863 0.0040973 0)
(0.848316 0.00313812 0)
(0.866925 0.0018369 0)
(0.863911 -0.000624507 0)
(0.870208 -0.00252604 0)
(0.828752 -0.00754227 0)
(0.808343 -0.0148923 0)
(0.649737 -0.0436048 0)
(0.603262 -0.1078 0)
)
;

boundaryField
{
    movingWall
    {
        type            fixedValue;
        value           uniform ( 1 0 0 );
    }
    fixedWalls
    {
        type            noSlip;
    }
    frontAndBack
    {
        type            empty;
    }
}


// ************************************************************************* //
