/*--------------------------------*- C++ -*----------------------------------*\
  =========                 |
  \\      /  F ield         | OpenFOAM: The Open Source CFD Toolbox
   \\    /   O peration     | Website:  https://openfoam.org
    \\  /    A nd           | Version:  7
     \\/     M anipulation  |
\*---------------------------------------------------------------------------*/
FoamFile
{
    version     2.0;
    format      ascii;
    class       volScalarField;
    location    "0.4";
    object      p;
}
// * * * * * * * * * * * * * * * * * * * * * * * * * * * * * * * * * * * * * //

dimensions      [0 2 -2 0 0 0 0];

internalField   nonuniform List<scalar> 
400
(
-2.5267e-08
-0.000126674
-0.000178426
-0.000134835
1.26685e-05
0.000265948
0.000625324
0.00109145
0.00166291
0.00233156
0.00307726
0.00386345
0.00463446
0.00532027
0.0058481
0.00616303
0.00625148
0.00615588
0.00596739
0.00579618
0.000126573
-3.93255e-06
-2.8312e-05
4.14018e-05
0.000199531
0.000448728
0.000791582
0.00123002
0.0017633
0.00238409
0.00307401
0.00380003
0.00451223
0.00514638
0.00563614
0.00593215
0.00602454
0.00595524
0.005802
0.00563404
0.000172495
4.57695e-06
-2.08533e-05
5.57535e-05
0.00021427
0.000455809
0.00078421
0.00120368
0.00171657
0.00231928
0.0029974
0.00372091
0.00443993
0.00508657
0.00558614
0.00587953
0.00595163
0.0058484
0.00565404
0.00543352
9.09041e-05
-0.000120359
-0.000158363
-8.5837e-05
6.53233e-05
0.000294788
0.000607898
0.00101217
0.0015148
0.00211806
0.00281323
0.00357382
0.00434841
0.00505836
0.00560943
0.0059194
0.00595877
0.0057803
0.00549517
0.00519364
-0.00015972
-0.000407618
-0.000460528
-0.000398106
-0.000260692
-4.88964e-05
0.000244928
0.000632532
0.00112735
0.00173956
0.00246858
0.00329349
0.00416354
0.00498545
0.00563506
0.00599109
0.00599566
0.00570712
0.0052827
0.0048661
-0.000608677
-0.000886753
-0.000956349
-0.000910072
-0.000794271
-0.000609062
-0.000344072
1.71298e-05
0.000495147
0.00111022
0.00187342
0.00277387
0.00377335
0.00476246
0.00557784
0.00603615
0.00602434
0.00559432
0.00496214
0.00435652
-0.00127454
-0.00157868
-0.00166811
-0.001646
-0.00156356
-0.00142062
-0.00120472
-0.000895622
-0.000466197
0.000114658
0.000874334
0.00182126
0.00295503
0.00416025
0.00523787
0.00591247
0.00596228
0.00539201
0.00446499
0.00352369
-0.00216832
-0.00249655
-0.00261079
-0.00262386
-0.00259223
-0.00251707
-0.00238642
-0.00217981
-0.00186818
-0.00141342
-0.000765766
0.000130268
0.00128119
0.00268875
0.00414105
0.00524842
0.00558704
0.00500306
0.00372332
0.00217871
-0.00329432
-0.00364638
-0.00379175
-0.00385357
-0.00389568
-0.00392433
-0.00393365
-0.00391126
-0.00383793
-0.00368373
-0.00339421
-0.00287433
-0.00199971
-0.000571208
0.00129294
0.00315904
0.00430321
0.0041674
0.00266718
9.97903e-05
-0.0046497
-0.00502648
-0.00520859
-0.00533195
-0.00547221
-0.00564687
-0.0058652
-0.00613722
-0.00647582
-0.00689254
-0.00736799
-0.00776954
-0.00775651
-0.00692752
-0.00491983
-0.00200321
0.00081594
0.00220792
0.00111126
-0.00285993
-0.00622464
-0.00662759
-0.0068469
-0.00703657
-0.00729143
-0.00764859
-0.00814409
-0.00882931
-0.00978054
-0.0110977
-0.012855
-0.0149405
-0.016808
-0.0174695
-0.0160371
-0.0121362
-0.0067307
-0.00213938
-0.00142757
-0.00642718
-0.00800513
-0.00843533
-0.00867952
-0.0089202
-0.00928274
-0.00983284
-0.0106438
-0.0118254
-0.0135458
-0.0160365
-0.0195168
-0.0239375
-0.0285545
-0.0317229
-0.031869
-0.0276035
-0.0193522
-0.0100748
-0.00543722
-0.00934269
-0.00998156
-0.0104374
-0.0106691
-0.0109087
-0.0113293
-0.0120323
-0.0131318
-0.0148005
-0.0173069
-0.0210236
-0.0263186
-0.0332042
-0.0408261
-0.0471916
-0.0493905
-0.0456173
-0.0353125
-0.0210967
-0.0104429
-0.00970607
-0.012168
-0.0126379
-0.012775
-0.0129046
-0.0132744
-0.0140224
-0.0152951
-0.0173146
-0.0204259
-0.0251025
-0.0318052
-0.0405606
-0.0504074
-0.0590778
-0.0634142
-0.0608092
-0.049883
-0.0320046
-0.0145753
-0.0064643
-0.0146413
-0.0150833
-0.0149632
-0.0147966
-0.0149434
-0.015566
-0.0168212
-0.0189537
-0.0223419
-0.0274906
-0.0348703
-0.0444655
-0.0552829
-0.0649982
-0.0704878
-0.0688247
-0.0581679
-0.0383365
-0.0152136
0.000952032
-0.0176288
-0.0179073
-0.0172141
-0.0164712
-0.0161776
-0.0164762
-0.0175007
-0.0194912
-0.02282
-0.0279613
-0.0353437
-0.0448774
-0.0555213
-0.0650187
-0.0705226
-0.0687941
-0.0579783
-0.0366116
-0.00891478
0.0161636
-0.0217555
-0.0214072
-0.0195051
-0.0178118
-0.0168648
-0.016676
-0.017307
-0.0189751
-0.0220252
-0.0268972
-0.0338982
-0.0428519
-0.0526747
-0.0611142
-0.0651838
-0.0621754
-0.0490185
-0.0239061
0.0108509
0.0502699
-0.0287184
-0.0260482
-0.0217509
-0.0187561
-0.0170287
-0.0162867
-0.0164709
-0.0177812
-0.0205294
-0.0250793
-0.0316364
-0.0398995
-0.0487088
-0.0557107
-0.0576827
-0.0507783
-0.0312124
0.00432158
0.0549857
0.122637
-0.042019
-0.0325974
-0.0240801
-0.0189189
-0.016174
-0.0149073
-0.0148085
-0.0159548
-0.0185928
-0.0229821
-0.0292119
-0.0368224
-0.0445528
-0.0498211
-0.0489518
-0.0363093
-0.00610261
0.0489812
0.132151
0.246487
-0.0958836
-0.0355897
-0.0158329
-0.0113659
-0.00980339
-0.00919363
-0.00972577
-0.0115362
-0.014748
-0.0194998
-0.0258004
-0.0330526
-0.0399081
-0.0435498
-0.0402019
-0.0235265
0.0161455
0.0935948
0.219846
0.398611
)
;

boundaryField
{
    movingWall
    {
        type            zeroGradient;
    }
    fixedWalls
    {
        type            zeroGradient;
    }
    frontAndBack
    {
        type            empty;
    }
}


// ************************************************************************* //
