/*--------------------------------*- C++ -*----------------------------------*\
  =========                 |
  \\      /  F ield         | OpenFOAM: The Open Source CFD Toolbox
   \\    /   O peration     | Website:  https://openfoam.org
    \\  /    A nd           | Version:  7
     \\/     M anipulation  |
\*---------------------------------------------------------------------------*/
FoamFile
{
    version     2.0;
    format      ascii;
    class       surfaceScalarField;
    location    "0.4";
    object      phi;
}
// * * * * * * * * * * * * * * * * * * * * * * * * * * * * * * * * * * * * * //

dimensions      [0 3 -1 0 0 0 0];

internalField   nonuniform List<scalar> 
760
(
-8.31806e-09
8.31981e-09
-5.62889e-08
4.79708e-08
-1.31591e-07
7.53025e-08
-2.19697e-07
8.81051e-08
-3.1183e-07
9.21328e-08
-4.0291e-07
9.10801e-08
-4.89217e-07
8.63068e-08
-5.66741e-07
7.75249e-08
-6.30253e-07
6.35121e-08
-6.73094e-07
4.28416e-08
-6.8775e-07
1.46559e-08
-6.67101e-07
-2.0649e-08
-6.06929e-07
-6.01715e-08
-5.08559e-07
-9.83703e-08
-3.81369e-07
-1.2719e-07
-2.43342e-07
-1.38026e-07
-1.1833e-07
-1.25012e-07
-2.9795e-08
-8.85353e-08
7.54574e-09
-3.73405e-08
7.54563e-09
-5.14018e-08
5.97217e-08
-1.81089e-07
1.77658e-07
-3.5987e-07
2.54083e-07
-5.63875e-07
2.92109e-07
-7.75979e-07
3.04237e-07
-9.84109e-07
2.9921e-07
-1.17841e-06
2.80613e-07
-1.34882e-06
2.47935e-07
-1.48361e-06
1.98296e-07
-1.56919e-06
1.28424e-07
-1.59138e-06
3.68465e-08
-1.5379e-06
-7.4131e-08
-1.4023e-06
-1.9577e-07
-1.18908e-06
-3.11591e-07
-9.1745e-07
-3.98817e-07
-6.22211e-07
-4.33265e-07
-3.48618e-07
-3.98604e-07
-1.40561e-07
-2.96592e-07
-2.53418e-08
-1.5256e-07
-1.77963e-08
-8.86236e-08
1.48345e-07
-2.83929e-07
3.72963e-07
-5.40627e-07
5.1078e-07
-8.27578e-07
5.7906e-07
-1.123e-06
5.99664e-07
-1.41103e-06
5.87237e-07
-1.67829e-06
5.47871e-07
-1.91116e-06
4.80802e-07
-2.09414e-06
3.81285e-07
-2.20968e-06
2.43962e-07
-2.23947e-06
6.66286e-08
-2.16729e-06
-1.46307e-07
-1.98404e-06
-3.79019e-07
-1.69399e-06
-6.01639e-07
-1.32084e-06
-7.71973e-07
-9.10235e-07
-8.43866e-07
-5.24163e-07
-7.84676e-07
-2.24216e-07
-5.96539e-07
-4.8953e-08
-3.27823e-07
-6.67494e-08
-1.1545e-07
2.63795e-07
-3.61645e-07
6.19158e-07
-6.78491e-07
8.27625e-07
-1.02821e-06
9.2878e-07
-1.38604e-06
9.57497e-07
-1.73452e-06
9.35717e-07
-2.05906e-06
8.72402e-07
-2.34464e-06
7.66389e-07
-2.57389e-06
6.1053e-07
-2.72636e-06
3.96432e-07
-2.77952e-06
1.19794e-07
-2.71131e-06
-2.14517e-07
-2.50541e-06
-5.84925e-07
-2.16002e-06
-9.4703e-07
-1.69794e-06
-1.23405e-06
-1.17421e-06
-1.36759e-06
-6.72383e-07
-1.28651e-06
-2.81183e-07
-9.87739e-07
-5.72044e-08
-5.51802e-07
-1.23954e-07
-1.34699e-07
3.98494e-07
-4.19788e-07
9.04247e-07
-7.83668e-07
1.19151e-06
-1.18321e-06
1.32832e-06
-1.592e-06
1.36628e-06
-1.99269e-06
1.33641e-06
-2.37143e-06
1.25114e-06
-2.71381e-06
1.10877e-06
-3.00213e-06
8.98852e-07
-3.21379e-06
6.08088e-07
-3.32101e-06
2.27023e-07
-3.29251e-06
-2.43017e-07
-3.09746e-06
-7.79981e-07
-2.71848e-06
-1.32601e-06
-2.1685e-06
-1.78402e-06
-1.50907e-06
-2.02702e-06
-8.54216e-07
-1.94136e-06
-3.39701e-07
-1.50225e-06
-5.73996e-08
-8.34103e-07
-1.81354e-07
-1.48811e-07
5.47304e-07
-4.63999e-07
1.21944e-06
-8.65643e-07
1.59315e-06
-1.30685e-06
1.76953e-06
-1.7609e-06
1.82034e-06
-2.21225e-06
1.78775e-06
-2.6498e-06
1.68869e-06
-3.06198e-06
1.52096e-06
-3.43298e-06
1.26985e-06
-3.7394e-06
9.14512e-07
-3.94762e-06
4.35243e-07
-4.01415e-06
-1.76493e-07
-3.88289e-06
-9.11238e-07
-3.50703e-06
-1.70187e-06
-2.87353e-06
-2.41752e-06
-2.04053e-06
-2.86002e-06
-1.15968e-06
-2.82222e-06
-4.44393e-07
-2.21754e-06
-6.03491e-08
-1.21815e-06
-2.41703e-07
-1.59383e-07
7.06687e-07
-4.98383e-07
1.55843e-06
-9.31136e-07
2.0259e-06
-1.40842e-06
2.24681e-06
-1.90458e-06
2.3165e-06
-2.40761e-06
2.29078e-06
-2.91153e-06
2.19262e-06
-3.41063e-06
2.02005e-06
-3.89432e-06
1.75354e-06
-4.34159e-06
1.36178e-06
-4.71339e-06
8.07042e-07
-4.95272e-06
6.2839e-08
-4.9654e-06
-8.98562e-07
-4.65803e-06
-2.00924e-06
-3.96715e-06
-3.10839e-06
-2.92561e-06
-3.90156e-06
-1.71713e-06
-4.0307e-06
-6.65623e-07
-3.26905e-06
-8.29741e-08
-1.8008e-06
-3.24677e-07
-1.67303e-07
8.7399e-07
-5.25295e-07
1.91643e-06
-9.83627e-07
2.48423e-06
-1.49172e-06
2.7549e-06
-2.02617e-06
2.85095e-06
-2.58029e-06
2.84491e-06
-3.15591e-06
2.76823e-06
-3.75683e-06
2.62097e-06
-4.38236e-06
2.37907e-06
-5.01864e-06
1.99806e-06
-5.62644e-06
1.41485e-06
-6.1208e-06
5.57195e-07
-6.38373e-06
-6.35627e-07
-6.24212e-06
-2.15086e-06
-5.56092e-06
-3.78959e-06
-4.3148e-06
-5.14768e-06
-2.68528e-06
-5.66022e-06
-1.11171e-06
-4.84261e-06
-1.55047e-07
-2.75747e-06
-4.79724e-07
-1.7303e-07
1.04702e-06
-5.45869e-07
2.28927e-06
-1.02406e-06
2.96243e-06
-1.55593e-06
3.28676e-06
-2.12106e-06
3.41609e-06
-2.71954e-06
3.44338e-06
-3.36329e-06
3.41198e-06
-4.06907e-06
3.32675e-06
-4.8505e-06
3.1605e-06
-5.70563e-06
2.85319e-06
-6.5969e-06
2.30611e-06
-7.4222e-06
1.3825e-06
-8.02623e-06
-3.16004e-08
-8.15552e-06
-2.02157e-06
-7.60202e-06
-4.34309e-06
-6.24589e-06
-6.50381e-06
-4.19347e-06
-7.71264e-06
-1.92755e-06
-7.10853e-06
-3.3216e-07
-4.35285e-06
-8.11884e-07
-1.77145e-07
1.22417e-06
-5.61242e-07
2.67336e-06
-1.05267e-06
3.45386e-06
-1.59792e-06
3.83201e-06
-2.17954e-06
3.9977e-06
-2.80481e-06
4.06865e-06
-3.49666e-06
4.10383e-06
-4.28617e-06
4.11626e-06
-5.20302e-06
4.07735e-06
-6.25878e-06
3.90895e-06
-7.42037e-06
3.4677e-06
-8.58131e-06
2.54343e-06
-9.52526e-06
9.12346e-07
-1.00064e-05
-1.54043e-06
-9.73458e-06
-4.6149e-06
-8.48762e-06
-7.75077e-06
-6.20572e-06
-9.99454e-06
-3.24263e-06
-1.00716e-05
-7.15442e-07
-6.88004e-06
-1.52733e-06
-1.81156e-07
1.40532e-06
-5.74421e-07
3.06663e-06
-1.07172e-06
3.95116e-06
-1.6158e-06
4.37609e-06
-2.19114e-06
4.57304e-06
-2.811e-06
4.68851e-06
-3.50723e-06
4.80006e-06
-4.32202e-06
4.93106e-06
-5.29698e-06
5.05231e-06
-6.45364e-06
5.06561e-06
-7.76438e-06
4.77845e-06
-9.12372e-06
3.90277e-06
-1.03362e-05
2.1248e-06
-1.11365e-05
-7.40105e-07
-1.12771e-05
-4.47432e-06
-1.04431e-05
-8.58477e-06
-8.35154e-06
-1.20861e-05
-5.0155e-06
-1.34077e-05
-1.43632e-06
-1.04592e-05
-2.96365e-06
-1.88654e-07
1.59398e-06
-5.92788e-07
3.47076e-06
-1.08912e-06
4.44749e-06
-1.61373e-06
4.9007e-06
-2.15134e-06
5.11065e-06
-2.71825e-06
5.25543e-06
-3.34972e-06
5.43153e-06
-4.09091e-06
5.67224e-06
-4.98579e-06
5.9472e-06
-6.05903e-06
6.13885e-06
-7.29185e-06
6.01126e-06
-8.60436e-06
5.21528e-06
-9.86591e-06
3.38635e-06
-1.0866e-05
2.59939e-07
-1.14536e-05
-3.88666e-06
-1.1289e-05
-8.74936e-06
-9.89971e-06
-1.34754e-05
-6.83728e-06
-1.64701e-05
-2.52155e-06
-1.47749e-05
-5.4852e-06
-2.07039e-07
1.80101e-06
-6.31368e-07
3.89509e-06
-1.1226e-06
4.93872e-06
-1.60722e-06
5.38531e-06
-2.06949e-06
5.57292e-06
-2.52547e-06
5.71141e-06
-3.0067e-06
5.91275e-06
-3.55101e-06
6.21656e-06
-4.19423e-06
6.59042e-06
-4.95913e-06
6.90375e-06
-5.84431e-06
6.89644e-06
-6.82116e-06
6.19213e-06
-7.843e-06
4.40819e-06
-8.89779e-06
1.31473e-06
-9.81815e-06
-2.9663e-06
-1.03952e-05
-8.17229e-06
-1.00631e-05
-1.38075e-05
-7.96862e-06
-1.85646e-05
-3.70264e-06
-1.90409e-05
-9.18784e-06
-2.50365e-07
2.05138e-06
-7.17142e-07
4.36187e-06
-1.20373e-06
5.42531e-06
-1.62715e-06
5.80873e-06
-1.97482e-06
5.92059e-06
-2.26196e-06
5.99855e-06
-2.51144e-06
6.16223e-06
-2.74703e-06
6.45215e-06
-2.99144e-06
6.83483e-06
-3.26711e-06
7.17942e-06
-3.60057e-06
7.22991e-06
-4.03138e-06
6.62294e-06
-4.62251e-06
4.99932e-06
-5.46499e-06
2.15721e-06
-6.55348e-06
-1.8778e-06
-7.73554e-06
-6.99023e-06
-8.50254e-06
-1.30405e-05
-7.804e-06
-1.92631e-05
-4.48919e-06
-2.23557e-05
-1.3677e-05
-3.44702e-07
2.39608e-06
-8.95381e-07
4.91254e-06
-1.38073e-06
5.91066e-06
-1.71908e-06
6.14709e-06
-1.91405e-06
6.11555e-06
-1.98463e-06
6.06913e-06
-1.9452e-06
6.1228e-06
-1.80544e-06
6.31238e-06
-1.57671e-06
6.6061e-06
-1.28655e-06
6.88926e-06
-9.94686e-07
6.93804e-06
-8.12433e-07
6.44069e-06
-8.88544e-07
5.07543e-06
-1.38039e-06
2.64905e-06
-2.41333e-06
-8.44858e-07
-3.91047e-06
-5.49309e-06
-5.54293e-06
-1.14081e-05
-6.28541e-06
-1.85206e-05
-4.51417e-06
-2.4127e-05
-1.81912e-05
-5.40236e-07
2.93632e-06
-1.24047e-06
5.61278e-06
-1.71725e-06
6.38744e-06
-1.93092e-06
6.36076e-06
-1.92851e-06
6.11314e-06
-1.74265e-06
5.88327e-06
-1.38431e-06
5.76447e-06
-8.55559e-07
5.78363e-06
-1.58598e-07
5.90914e-06
6.67918e-07
6.06274e-06
1.53883e-06
6.06713e-06
2.30362e-06
5.6759e-06
2.74935e-06
4.6297e-06
2.65977e-06
2.73863e-06
1.8334e-06
-1.84847e-08
3.13447e-07
-3.97314e-06
-1.76055e-06
-9.33406e-06
-3.71051e-06
-1.65707e-05
-3.66104e-06
-2.41765e-05
-2.18522e-05
-9.46688e-07
3.88301e-06
-1.87368e-06
6.53977e-06
-2.26939e-06
6.78316e-06
-2.24836e-06
6.33973e-06
-1.94465e-06
5.80943e-06
-1.42164e-06
5.36025e-06
-6.97095e-07
5.03992e-06
2.28509e-07
4.85803e-06
1.33824e-06
4.79941e-06
2.60894e-06
4.79204e-06
3.9505e-06
4.72557e-06
5.19746e-06
4.42895e-06
6.116e-06
3.71116e-06
6.45949e-06
2.39514e-06
6.07508e-06
3.65916e-07
4.787e-06
-2.68505e-06
2.59624e-06
-7.1433e-06
-1.56394e-07
-1.3818e-05
-1.9283e-06
-2.24046e-05
-2.37805e-05
-1.86503e-06
5.74804e-06
-2.9242e-06
7.59894e-06
-2.81693e-06
6.67589e-06
-2.11522e-06
5.63802e-06
-1.13898e-06
4.83319e-06
-3.29025e-09
4.22457e-06
1.26181e-06
3.77482e-06
2.65474e-06
3.4651e-06
4.18027e-06
3.27387e-06
5.81856e-06
3.15375e-06
7.50729e-06
3.03685e-06
9.11847e-06
2.81776e-06
1.04483e-05
2.38131e-06
1.12557e-05
1.58776e-06
1.13031e-05
3.18545e-07
1.03598e-05
-1.74175e-06
8.19392e-06
-4.97745e-06
4.69011e-06
-1.03142e-05
1.11844e-06
-1.88329e-05
-2.26621e-05
-3.82801e-06
9.57605e-06
-2.67767e-06
6.4486e-06
-1.0415e-07
4.10236e-06
2.3546e-06
3.17927e-06
4.5966e-06
2.59119e-06
6.68588e-06
2.13528e-06
8.66282e-06
1.79789e-06
1.05638e-05
1.56415e-06
1.24274e-05
1.41023e-06
1.42769e-05
1.30426e-06
1.60995e-05
1.21429e-06
1.78257e-05
1.09156e-06
1.93207e-05
8.86297e-07
2.03631e-05
5.4534e-07
2.06202e-05
6.14471e-08
1.98143e-05
-9.35848e-07
1.74055e-05
-2.56861e-06
1.27457e-05
-5.65443e-06
5.70442e-06
-1.17916e-05
-1.69577e-05
9.57605e-06
1.60247e-05
2.0127e-05
2.33063e-05
2.58975e-05
2.80328e-05
2.98306e-05
3.13948e-05
3.2805e-05
3.41093e-05
3.53236e-05
3.64151e-05
3.73014e-05
3.78468e-05
3.79082e-05
3.69724e-05
3.44038e-05
2.87493e-05
1.69577e-05
)
;

boundaryField
{
    movingWall
    {
        type            calculated;
        value           uniform 0;
    }
    fixedWalls
    {
        type            calculated;
        value           uniform 0;
    }
    frontAndBack
    {
        type            empty;
        value           nonuniform 0();
    }
}


// ************************************************************************* //
