/*--------------------------------*- C++ -*----------------------------------*\
  =========                 |
  \\      /  F ield         | OpenFOAM: The Open Source CFD Toolbox
   \\    /   O peration     | Website:  https://openfoam.org
    \\  /    A nd           | Version:  7
     \\/     M anipulation  |
\*---------------------------------------------------------------------------*/
FoamFile
{
    version     2.0;
    format      ascii;
    class       volVectorField;
    location    "0.4";
    object      U;
}
// * * * * * * * * * * * * * * * * * * * * * * * * * * * * * * * * * * * * * //

dimensions      [0 1 -1 0 0 0 0];

internalField   nonuniform List<vector> 
400
(
(2.03893e-05 -2.86361e-05 0)
(-0.00048438 0.000283875 0)
(-0.00179647 0.000509136 0)
(-0.0034799 0.000610414 0)
(-0.00531064 0.000642294 0)
(-0.00716268 0.000640138 0)
(-0.00895416 0.000616209 0)
(-0.0106119 0.000567401 0)
(-0.0120456 0.000482013 0)
(-0.0131355 0.000345939 0)
(-0.0137363 0.000148938 0)
(-0.0136951 -0.000108465 0)
(-0.0128898 -0.000407425 0)
(-0.0112832 -0.000703092 0)
(-0.00897784 -0.000929034 0)
(-0.00625148 -0.00101238 0)
(-0.00353576 -0.000901876 0)
(-0.00131769 -0.00059755 0)
(2.46296e-06 -0.000171684 0)
(0.000198842 0.000168197 0)
(-0.000323833 0.000495225 0)
(-0.00200227 0.00190143 0)
(-0.00522035 0.00285037 0)
(-0.00916473 0.00331575 0)
(-0.0133953 0.00346806 0)
(-0.0176484 0.00342634 0)
(-0.021719 0.00323726 0)
(-0.0254156 0.00289252 0)
(-0.0285237 0.00235215 0)
(-0.0307876 0.00156984 0)
(-0.0319214 0.000519696 0)
(-0.0316461 -0.000774467 0)
(-0.0297567 -0.00221001 0)
(-0.0262169 -0.0035866 0)
(-0.0212545 -0.0046225 0)
(-0.0154176 -0.00501905 0)
(-0.00953533 -0.00457505 0)
(-0.00453615 -0.00330935 0)
(-0.0011962 -0.00153365 0)
(-1.08163e-05 4.76387e-05 0)
(-0.000629684 0.00195672 0)
(-0.00329075 0.00523796 0)
(-0.00799553 0.00731553 0)
(-0.013594 0.00835607 0)
(-0.0195115 0.00868427 0)
(-0.0254156 0.00852636 0)
(-0.0310329 0.00797672 0)
(-0.0361023 0.00702305 0)
(-0.0403368 0.00559114 0)
(-0.0434028 0.00359741 0)
(-0.0449311 0.00100601 0)
(-0.0445598 -0.00210986 0)
(-0.0420125 -0.0055082 0)
(-0.0372165 -0.00874003 0)
(-0.0304343 -0.0111804 0)
(-0.0223634 -0.0121644 0)
(-0.0141163 -0.0112402 0)
(-0.00698684 -0.00845706 0)
(-0.00208671 -0.00451646 0)
(-0.000156131 -0.000756688 0)
(-0.000841105 0.00403487 0)
(-0.00424608 0.00973053 0)
(-0.0101104 0.0131492 0)
(-0.016973 0.0148307 0)
(-0.0241555 0.015324 0)
(-0.0312961 0.0149867 0)
(-0.0380981 0.013967 0)
(-0.0442763 0.0122468 0)
(-0.0495124 0.00971069 0)
(-0.0534267 0.00622784 0)
(-0.0555803 0.00174044 0)
(-0.0555103 -0.00363938 0)
(-0.0528048 -0.00953174 0)
(-0.0472455 -0.0151997 0)
(-0.039006 -0.0195804 0)
(-0.0288491 -0.0214884 0)
(-0.0181987 -0.0200615 0)
(-0.0088767 -0.0153295 0)
(-0.00251697 -0.00852386 0)
(-0.000127491 -0.00185026 0)
(-0.000985073 0.00655788 0)
(-0.00494402 0.0150872 0)
(-0.0117093 0.0200063 0)
(-0.0195665 0.0223708 0)
(-0.0277617 0.0230285 0)
(-0.0359323 0.0225 0)
(-0.043796 0.0209963 0)
(-0.0510842 0.0184896 0)
(-0.057485 0.0148095 0)
(-0.0625978 0.00975044 0)
(-0.0659156 0.00319001 0)
(-0.0668353 -0.00477595 0)
(-0.064703 -0.013686 0)
(-0.0589783 -0.0225127 0)
(-0.0495441 -0.029646 0)
(-0.037082 -0.033124 0)
(-0.0233663 -0.0313401 0)
(-0.0110584 -0.0241245 0)
(-0.00276343 -0.0134567 0)
(4.1099e-05 -0.00298261 0)
(-0.00108532 0.00940782 0)
(-0.00546195 0.0211192 0)
(-0.0129377 0.0276929 0)
(-0.0216065 0.0308044 0)
(-0.0306682 0.0316717 0)
(-0.0397871 0.0310165 0)
(-0.0487323 0.0291276 0)
(-0.0572957 0.0259658 0)
(-0.0652183 0.0212859 0)
(-0.0721186 0.0147622 0)
(-0.0774364 0.00612766 0)
(-0.0803988 -0.00465253 0)
(-0.0799769 -0.0171621 0)
(-0.0750546 -0.0301654 0)
(-0.064903 -0.0413996 0)
(-0.0498262 -0.0477344 0)
(-0.031865 -0.0461856 0)
(-0.0148774 -0.0358841 0)
(-0.00327076 -0.0197883 0)
(0.000308045 -0.00408133 0)
(-0.00115618 0.0125001 0)
(-0.00585421 0.0276819 0)
(-0.0139026 0.03606 0)
(-0.0232528 0.0400087 0)
(-0.0330857 0.0411836 0)
(-0.0431212 0.0405522 0)
(-0.0532204 0.0385054 0)
(-0.0632898 0.034999 0)
(-0.0731898 0.0296952 0)
(-0.0826289 0.022091 0)
(-0.0910449 0.011651 0)
(-0.0974845 -0.00198471 0)
(-0.100419 -0.0186263 0)
(-0.0978494 -0.0371418 0)
(-0.0879903 -0.0545557 0)
(-0.0702955 -0.0660818 0)
(-0.0467147 -0.0663523 0)
(-0.0224121 -0.0526587 0)
(-0.00477495 -0.0288125 0)
(0.000611286 -0.00532794 0)
(-0.00120514 0.0157744 0)
(-0.00615213 0.0346678 0)
(-0.0146641 0.0449909 0)
(-0.0245816 0.0498828 0)
(-0.0350871 0.0515052 0)
(-0.0459837 0.0511261 0)
(-0.0572678 0.0492781 0)
(-0.0690238 0.0459348 0)
(-0.0813192 0.040663 0)
(-0.094061 0.0327284 0)
(-0.106773 0.0211827 0)
(-0.118281 0.00505308 0)
(-0.126539 -0.0161763 0)
(-0.128427 -0.0417869 0)
(-0.120577 -0.0682015 0)
(-0.101115 -0.088567 0)
(-0.0711965 -0.093921 0)
(-0.0366152 -0.0776824 0)
(-0.0085826 -0.0430902 0)
(0.000802466 -0.00734562 0)
(-0.00123624 0.0191831 0)
(-0.00637259 0.0419897 0)
(-0.0152481 0.0543778 0)
(-0.0256019 0.0603112 0)
(-0.0366275 0.062534 0)
(-0.0482308 0.0626827 0)
(-0.06058 0.0614897 0)
(-0.0739948 0.0589927 0)
(-0.0888301 0.0546802 0)
(-0.105289 0.0475359 0)
(-0.123089 0.036012 0)
(-0.140965 0.0181144 0)
(-0.156246 -0.00797273 0)
(-0.164544 -0.0421408 0)
(-0.16091 -0.0807213 0)
(-0.141914 -0.1146 0)
(-0.106974 -0.130332 0)
(-0.0606767 -0.114901 0)
(-0.0169854 -0.0668998 0)
(0.000467657 -0.0116068 0)
(-0.00125581 0.0226869 0)
(-0.00653601 0.0495698 0)
(-0.0156763 0.0640995 0)
(-0.0262968 0.0711258 0)
(-0.0375938 0.0740631 0)
(-0.0495802 0.0749983 0)
(-0.0626082 0.0749373 0)
(-0.0772546 0.0740458 0)
(-0.0941941 0.0717648 0)
(-0.113975 0.0667364 0)
(-0.136591 0.0565962 0)
(-0.160753 0.0379502 0)
(-0.183091 0.00726358 0)
(-0.19851 -0.0366993 0)
(-0.201241 -0.0901155 0)
(-0.186386 -0.14205 0)
(-0.150878 -0.17482 0)
(-0.0956612 -0.167211 0)
(-0.0334854 -0.10638 0)
(-0.00149902 -0.0211947 0)
(-0.00128087 0.0262644 0)
(-0.00669314 0.0573466 0)
(-0.0160134 0.0740145 0)
(-0.0266871 0.0820797 0)
(-0.0378857 0.085731 0)
(-0.0497091 0.0875919 0)
(-0.0626616 0.0890147 0)
(-0.0775242 0.0903533 0)
(-0.0952177 0.0910233 0)
(-0.116552 0.0892588 0)
(-0.141751 0.0816917 0)
(-0.169649 0.0632924 0)
(-0.196865 0.0286149 0)
(-0.218106 -0.0251176 0)
(-0.228002 -0.0940446 0)
(-0.221387 -0.16653 0)
(-0.192384 -0.22251 0)
(-0.136662 -0.233168 0)
(-0.0609903 -0.167811 0)
(-0.00725179 -0.0415518 0)
(-0.00135174 0.029941 0)
(-0.00696221 0.0653061 0)
(-0.0164279 0.0839749 0)
(-0.0269142 0.0928428 0)
(-0.0375269 0.0969967 0)
(-0.0484141 0.0996705 0)
(-0.0601508 0.102603 0)
(-0.0735831 0.106358 0)
(-0.0896921 0.110324 0)
(-0.109368 0.11229 0)
(-0.132996 0.107859 0)
(-0.159771 0.0904865 0)
(-0.187028 0.05327 0)
(-0.210492 -0.00752524 0)
(-0.226602 -0.0893307 0)
(-0.23089 -0.180866 0)
(-0.215536 -0.263121 0)
(-0.171065 -0.303312 0)
(-0.0960088 -0.251043 0)
(-0.0190088 -0.0796494 0)
(-0.00155251 0.0338465 0)
(-0.00758062 0.0735437 0)
(-0.0172656 0.0938627 0)
(-0.0273306 0.103022 0)
(-0.0367882 0.107162 0)
(-0.0458088 0.110162 0)
(-0.0549369 0.114122 0)
(-0.064903 0.119779 0)
(-0.0765234 0.12648 0)
(-0.0905808 0.131653 0)
(-0.107603 0.130155 0)
(-0.127398 0.114506 0)
(-0.14872 0.0771 0)
(-0.169971 0.0137401 0)
(-0.189567 -0.0740439 0)
(-0.204411 -0.178036 0)
(-0.206726 -0.283879 0)
(-0.183304 -0.360764 0)
(-0.125005 -0.343013 0)
(-0.0355666 -0.141357 0)
(-0.00204829 0.0383162 0)
(-0.00898227 0.0823577 0)
(-0.0191344 0.103636 0)
(-0.0285759 0.1122 0)
(-0.0362761 0.115448 0)
(-0.0424775 0.117873 0)
(-0.0476393 0.121827 0)
(-0.0522494 0.128132 0)
(-0.0568222 0.136105 0)
(-0.0619659 0.143042 0)
(-0.0684383 0.143612 0)
(-0.0769435 0.130222 0)
(-0.0879763 0.0953353 0)
(-0.102355 0.0347661 0)
(-0.121216 -0.050558 0)
(-0.143798 -0.1571 0)
(-0.163128 -0.277738 0)
(-0.164507 -0.390179 0)
(-0.133375 -0.423459 0)
(-0.049259 -0.226932 0)
(-0.00316054 0.0440817 0)
(-0.0119281 0.0923756 0)
(-0.0230002 0.11335 0)
(-0.0315952 0.119947 0)
(-0.0368921 0.121085 0)
(-0.0394113 0.121719 0)
(-0.0395693 0.124256 0)
(-0.037601 0.129493 0)
(-0.0337283 0.136764 0)
(-0.0284365 0.14356 0)
(-0.0227809 0.144984 0)
(-0.0183933 0.13415 0)
(-0.0173945 0.10414 0)
(-0.0225901 0.0509303 0)
(-0.0373375 -0.0255405 0)
(-0.0627098 -0.12519 0)
(-0.0941305 -0.248938 0)
(-0.117745 -0.387559 0)
(-0.117785 -0.477461 0)
(-0.0510613 -0.325403 0)
(-0.00554141 0.0526768 0)
(-0.0177659 0.104683 0)
(-0.0303048 0.123038 0)
(-0.0375127 0.125715 0)
(-0.0394865 0.123314 0)
(-0.0374372 0.120874 0)
(-0.0318695 0.120561 0)
(-0.0228747 0.123033 0)
(-0.0104855 0.127672 0)
(0.00486001 0.132527 0)
(0.0218744 0.133564 0)
(0.0381997 0.125143 0)
(0.0504836 0.101339 0)
(0.0548044 0.058136 0)
(0.0464647 -0.00582879 0)
(0.0235941 -0.0921986 0)
(-0.0125138 -0.208593 0)
(-0.0515698 -0.359249 0)
(-0.0838409 -0.499804 0)
(-0.0388895 -0.418071 0)
(-0.0106469 0.0671719 0)
(-0.0290396 0.12068 0)
(-0.0430267 0.13228 0)
(-0.0468117 0.128564 0)
(-0.0431319 0.121205 0)
(-0.0345668 0.114613 0)
(-0.0219344 0.110361 0)
(-0.00542238 0.108871 0)
(0.0150396 0.109693 0)
(0.0390554 0.111357 0)
(0.0652296 0.11101 0)
(0.0911418 0.10449 0)
(0.11299 0.0872219 0)
(0.126359 0.0553527 0)
(0.126611 0.0063571 0)
(0.110964 -0.063578 0)
(0.0770622 -0.164664 0)
(0.0308218 -0.311661 0)
(-0.03366 -0.486569 0)
(-0.0124805 -0.482876 0)
(-0.0221811 0.0929315 0)
(-0.0509574 0.142262 0)
(-0.0612639 0.139215 0)
(-0.0515329 0.124233 0)
(-0.0336254 0.110172 0)
(-0.012056 0.0989769 0)
(0.0121642 0.0907965 0)
(0.0388559 0.0854919 0)
(0.0680519 0.0826597 0)
(0.099651 0.0811435 0)
(0.132756 0.079222 0)
(0.165671 0.074205 0)
(0.194975 0.0630665 0)
(0.217074 0.0425354 0)
(0.22591 0.00995541 0)
(0.219118 -0.0406296 0)
(0.189193 -0.118001 0)
(0.140364 -0.242599 0)
(0.0442508 -0.424827 0)
(0.0374406 -0.486982 0)
(-0.0646626 0.17217 0)
(-0.0753215 0.152455 0)
(-0.0277904 0.111525 0)
(0.022672 0.0902605 0)
(0.0698452 0.0757475 0)
(0.113417 0.064393 0)
(0.154127 0.0558007 0)
(0.192836 0.0497254 0)
(0.230245 0.0457368 0)
(0.267138 0.0430575 0)
(0.30328 0.0408087 0)
(0.338578 0.0375483 0)
(0.369834 0.0317721 0)
(0.396207 0.0213532 0)
(0.407877 0.00441347 0)
(0.406188 -0.0224187 0)
(0.373265 -0.0661131 0)
(0.317292 -0.144656 0)
(0.187298 -0.292462 0)
(0.139127 -0.387867 0)
(0.213171 0.12951 0)
(0.25514 0.106757 0)
(0.353 0.0744297 0)
(0.434605 0.0544169 0)
(0.494725 0.0416583 0)
(0.541441 0.0325654 0)
(0.580059 0.025861 0)
(0.613352 0.0209658 0)
(0.642678 0.0174711 0)
(0.669609 0.0149563 0)
(0.693981 0.0130537 0)
(0.717058 0.0113283 0)
(0.735405 0.00920705 0)
(0.750969 0.00626459 0)
(0.753395 0.00133314 0)
(0.748616 -0.00538117 0)
(0.708878 -0.0173233 0)
(0.651367 -0.0374793 0)
(0.49334 -0.0833409 0)
(0.365535 -0.139619 0)
)
;

boundaryField
{
    movingWall
    {
        type            fixedValue;
        value           uniform (1 0 0);
    }
    fixedWalls
    {
        type            noSlip;
    }
    frontAndBack
    {
        type            empty;
    }
}


// ************************************************************************* //
