/*--------------------------------*- C++ -*----------------------------------*\
  =========                 |
  \\      /  F ield         | OpenFOAM: The Open Source CFD Toolbox
   \\    /   O peration     | Website:  https://openfoam.org
    \\  /    A nd           | Version:  9
     \\/     M anipulation  |
\*---------------------------------------------------------------------------*/
FoamFile
{
    format      ascii;
    class       volScalarField;
    location    "0.5";
    object      p;
}
// * * * * * * * * * * * * * * * * * * * * * * * * * * * * * * * * * * * * * //

dimensions      [ 0 2 -2 0 0 0 0 ];

internalField   nonuniform List<scalar> 
400
(
4.68208e-09
-1.8766e-06
-2.14296e-06
-6.6032e-07
2.63604e-06
7.70482e-06
1.43597e-05
2.23138e-05
3.12207e-05
4.06968e-05
5.03375e-05
5.97322e-05
6.84793e-05
7.62021e-05
8.25673e-05
8.73102e-05
9.02777e-05
9.14752e-05
9.1025e-05
8.91025e-05
2.97553e-06
9.50839e-08
-3.65069e-07
1.20878e-06
4.53464e-06
9.49708e-06
1.59179e-05
2.35336e-05
3.20244e-05
4.10335e-05
5.01817e-05
5.90834e-05
6.73636e-05
7.46756e-05
8.07178e-05
8.52554e-05
8.8153e-05
8.93531e-05
8.86496e-05
8.57181e-05
-3.31591e-06
-7.38952e-06
-8.23842e-06
-6.48003e-06
-2.57972e-06
3.27804e-06
1.08601e-05
1.98409e-05
2.98352e-05
4.04184e-05
5.11415e-05
6.15483e-05
7.11961e-05
7.96755e-05
8.66294e-05
9.1779e-05
9.49608e-05
9.60865e-05
9.48177e-05
9.06454e-05
-1.84321e-05
-2.38309e-05
-2.49228e-05
-2.25498e-05
-1.73545e-05
-9.60261e-06
3.8389e-07
1.21693e-05
2.52452e-05
3.90539e-05
5.30073e-05
6.65066e-05
7.89721e-05
8.98691e-05
9.87349e-05
0.000105214
0.00010911
0.000110331
0.00010846
0.000102845
-4.52609e-05
-5.25349e-05
-5.38035e-05
-5.02374e-05
-4.27464e-05
-3.17218e-05
-1.76243e-05
-1.06341e-06
1.72534e-05
3.65499e-05
5.60044e-05
7.47743e-05
9.20431e-05
0.000107059
0.000119178
0.000127921
0.00013305
0.000134491
0.000131753
0.000124008
-8.86089e-05
-9.8591e-05
-9.99534e-05
-9.43809e-05
-8.32006e-05
-6.69961e-05
-4.64314e-05
-2.23701e-05
4.18569e-06
3.21279e-05
6.0272e-05
8.73843e-05
0.000112256
0.000133772
0.000150986
0.000163218
0.000170181
0.000171874
0.000167749
0.000156759
-0.000156208
-0.000170008
-0.000171303
-0.000162561
-0.000145742
-0.000121706
-9.13941e-05
-5.6012e-05
-1.69695e-05
2.41478e-05
6.56129e-05
0.000105582
0.000142191
0.000173709
0.000198669
0.000216052
0.000225512
0.000227254
0.000220792
0.000204876
-0.000260034
-0.000279077
-0.000280018
-0.00026649
-0.000241376
-0.000205906
-0.000161353
-0.000109336
-5.17783e-05
9.08274e-06
7.07353e-05
0.000130414
0.000185123
0.000232051
0.000268775
0.000293645
0.000306234
0.000307245
0.000296646
0.000273199
-0.000418123
-0.000444183
-0.000444349
-0.000423957
-0.000387174
-0.000335665
-0.000271013
-0.000195228
-0.000110779
-2.07189e-05
7.13199e-05
0.000161312
0.000244261
0.000315373
0.000370348
0.000406192
0.000422255
0.000420364
0.000402027
0.000366809
-0.00065696
-0.000692149
-0.000691128
-0.000661626
-0.000609513
-0.000536845
-0.000445304
-0.00033703
-0.000214845
-8.26696e-05
5.44431e-05
0.000191493
0.000319501
0.00042995
0.000514611
0.000567317
0.000586489
0.000576263
0.000542523
0.000487998
-0.00101403
-0.00106073
-0.00105857
-0.0010185
-0.000948483
-0.000850691
-0.000726337
-0.000576982
-0.000405007
-0.000214359
-1.11292e-05
0.000197414
0.000398207
0.000575238
0.000711579
0.00079301
0.000814098
0.000782907
0.000716432
0.000627433
-0.00153941
-0.00160018
-0.00159843
-0.00154929
-0.00146309
-0.00134154
-0.0011843
-0.000990823
-0.000761082
-0.000496828
-0.000203593
0.000107719
0.000425486
0.000718933
0.000952345
0.00109077
0.00111488
0.00103695
0.000898545
0.000740158
-0.00229415
-0.00237179
-0.00237569
-0.00232613
-0.00223592
-0.00210573
-0.0019325
-0.00171165
-0.00143773
-0.00110579
-0.000715692
-0.000275884
0.000212666
0.000704527
0.00112938
0.00140162
0.0014545
0.00129463
0.00100576
0.000685916
-0.00333807
-0.00343428
-0.00345291
-0.0034205
-0.00335366
-0.00325326
-0.00311444
-0.00292924
-0.00268659
-0.00237094
-0.00196283
-0.00145276
-0.000853774
-9.40604e-05
0.000695022
0.0013275
0.00158865
0.00139876
0.000858855
0.000111705
-0.00472082
-0.00483841
-0.00489147
-0.00491492
-0.00493006
-0.00494109
-0.00494787
-0.00494972
-0.00494655
-0.00493687
-0.00490029
-0.00475598
-0.00435617
-0.00361835
-0.00244443
-0.00105068
9.11492e-05
0.000500079
-7.83867e-05
-0.00168073
-0.00642051
-0.00656496
-0.00664361
-0.006715
-0.00682646
-0.00700446
-0.00727263
-0.00766525
-0.00824079
-0.0090938
-0.0103246
-0.0118865
-0.0133463
-0.0139758
-0.0135958
-0.0116731
-0.00844851
-0.00514373
-0.00371501
-0.00508622
-0.0082915
-0.00842199
-0.00855788
-0.00875075
-0.00905198
-0.00950814
-0.0101873
-0.0112029
-0.012732
-0.0150323
-0.0183963
-0.0229305
-0.0282394
-0.0330615
-0.0350664
-0.0331766
-0.0271034
-0.0184281
-0.0113021
-0.00867488
-0.0116819
-0.0113906
-0.0109111
-0.0106533
-0.0106562
-0.0109973
-0.0117732
-0.0131056
-0.0151918
-0.0183385
-0.0228769
-0.0289434
-0.0360304
-0.0427453
-0.0468406
-0.0462381
-0.0397804
-0.0277961
-0.0144244
-0.00529243
-0.00860288
-0.0101946
-0.0112681
-0.011717
-0.0118394
-0.0119839
-0.0124038
-0.0133368
-0.0149946
-0.0178346
-0.0220464
-0.0276002
-0.0339458
-0.0396139
-0.042375
-0.0387699
-0.0269807
-0.0065192
0.0184656
0.0442812
-0.0402263
-0.02071
-0.013759
-0.0110749
-0.009452
-0.00843985
-0.00813605
-0.00866111
-0.0101449
-0.0126785
-0.0162174
-0.0202769
-0.0237995
-0.0247663
-0.0205681
-0.00770641
0.0178755
0.0576719
0.108069
0.160946
)
;

boundaryField
{
    movingWall
    {
        type            zeroGradient;
    }
    fixedWalls
    {
        type            zeroGradient;
    }
    frontAndBack
    {
        type            empty;
    }
}


// ************************************************************************* //
