/*--------------------------------*- C++ -*----------------------------------*\
  =========                 |
  \\      /  F ield         | OpenFOAM: The Open Source CFD Toolbox
   \\    /   O peration     | Website:  https://openfoam.org
    \\  /    A nd           | Version:  9
     \\/     M anipulation  |
\*---------------------------------------------------------------------------*/
FoamFile
{
    format      ascii;
    class       surfaceScalarField;
    location    "0.5";
    object      phi;
}
// * * * * * * * * * * * * * * * * * * * * * * * * * * * * * * * * * * * * * //

dimensions      [ 0 3 -1 0 0 0 0 ];

internalField   nonuniform List<scalar> 
760
(
-1.78558e-09
1.78506e-09
-7.01069e-09
5.22521e-09
-1.45172e-08
7.50672e-09
-2.30252e-08
8.50812e-09
-3.14985e-08
8.47358e-09
-3.91909e-08
7.69254e-09
-4.55946e-08
6.40389e-09
-5.03743e-08
4.77986e-09
-5.33156e-08
2.94129e-09
-5.42954e-08
9.79881e-10
-5.32706e-08
-1.02486e-09
-5.02758e-08
-2.99488e-09
-4.54295e-08
-4.84633e-09
-3.895e-08
-6.47952e-09
-3.11865e-08
-7.76347e-09
-2.26697e-08
-8.51658e-09
-1.41734e-08
-8.49609e-09
-6.75165e-09
-7.42159e-09
-1.66958e-09
-5.08192e-09
-1.66951e-09
-4.81918e-09
6.60427e-09
-1.57029e-08
1.61091e-08
-2.99972e-08
2.18011e-08
-4.56028e-08
2.41137e-08
-6.08984e-08
2.37692e-08
-7.46995e-08
2.14934e-08
-8.61707e-08
1.78749e-08
-9.47358e-08
1.33446e-08
-1.00012e-07
8.21733e-09
-1.01776e-07
2.74304e-09
-9.9947e-08
-2.85426e-09
-9.4589e-08
-8.3534e-09
-8.59174e-08
-1.35184e-08
-7.43201e-08
-1.80772e-08
-6.03967e-08
-2.16872e-08
-4.50219e-08
-2.38914e-08
-2.94273e-08
-2.40909e-08
-1.52663e-08
-2.15827e-08
-4.61751e-09
-1.57309e-08
-6.28715e-09
-6.52655e-09
1.3131e-08
-2.12984e-08
3.08813e-08
-4.05561e-08
4.10591e-08
-6.14078e-08
4.49658e-08
-8.17254e-08
4.4087e-08
-9.99938e-08
3.97621e-08
-1.15154e-07
3.30354e-08
-1.26473e-07
2.46635e-08
-1.33457e-07
1.52015e-08
-1.35811e-07
5.09695e-09
-1.33422e-07
-5.2438e-09
-1.26362e-07
-1.54127e-08
-1.14904e-07
-2.49765e-08
-9.95438e-08
-3.34376e-08
-8.10531e-08
-4.01778e-08
-6.05632e-08
-4.43812e-08
-3.9679e-08
-4.4975e-08
-2.05985e-08
-4.06632e-08
-6.19388e-09
-3.01355e-08
-1.24811e-08
-8.60273e-09
2.17338e-08
-2.81034e-08
5.03821e-08
-5.34786e-08
6.64344e-08
-8.08931e-08
7.23802e-08
-1.07564e-07
7.07577e-08
-1.31535e-07
6.37337e-08
-1.51449e-07
5.29485e-08
-1.66356e-07
3.95705e-08
-1.75608e-07
2.4453e-08
-1.788e-07
8.28897e-09
-1.75759e-07
-8.28527e-09
-1.66554e-07
-2.46173e-08
-1.5152e-07
-4.00111e-08
-1.31294e-07
-5.36631e-08
-1.06892e-07
-6.458e-08
-7.98151e-08
-7.14583e-08
-5.22055e-08
-7.25847e-08
-2.7006e-08
-6.58628e-08
-8.05311e-09
-4.90884e-08
-2.05341e-08
-1.17852e-08
3.35192e-08
-3.83522e-08
7.69492e-08
-7.28032e-08
1.00886e-07
-1.09947e-07
1.09524e-07
-1.46065e-07
1.06876e-07
-1.78568e-07
9.62368e-08
-2.05652e-07
8.00323e-08
-2.2604e-07
5.99587e-08
-2.38831e-07
3.72435e-08
-2.43431e-07
1.28892e-08
-2.39545e-07
-1.21714e-08
-2.2721e-07
-3.69519e-08
-2.06836e-07
-6.03852e-08
-1.79272e-07
-8.12269e-08
-1.45913e-07
-9.79388e-08
-1.08851e-07
-1.08521e-07
-7.10725e-08
-1.10363e-07
-3.66579e-08
-1.00277e-07
-1.08731e-08
-7.48732e-08
-3.14072e-08
-1.66082e-08
5.01274e-08
-5.37098e-08
1.14051e-07
-1.01587e-07
1.48763e-07
-1.53087e-07
1.61024e-07
-2.03173e-07
1.56962e-07
-2.48362e-07
1.41426e-07
-2.86218e-07
1.17888e-07
-3.14973e-07
8.87137e-08
-3.33323e-07
5.55928e-08
-3.40347e-07
1.99136e-08
-3.35506e-07
-1.70121e-08
-3.18724e-07
-5.37337e-08
-2.90477e-07
-8.86324e-08
-2.51907e-07
-1.19796e-07
-2.04994e-07
-1.44852e-07
-1.52764e-07
-1.60751e-07
-9.95429e-08
-1.63584e-07
-5.11791e-08
-1.48641e-07
-1.51008e-08
-1.10952e-07
-4.65081e-08
-2.36975e-08
7.3825e-08
-7.60735e-08
1.66427e-07
-1.43293e-07
2.15982e-07
-2.15449e-07
2.33179e-07
-2.85706e-07
2.27219e-07
-3.49386e-07
2.05105e-07
-4.03178e-07
1.7168e-07
-4.44601e-07
1.30137e-07
-4.71714e-07
8.27055e-08
-4.83026e-07
3.12263e-08
-4.77513e-07
-2.25249e-08
-4.54767e-07
-7.64797e-08
-4.15251e-07
-1.28148e-07
-3.60474e-07
-1.74573e-07
-2.9329e-07
-2.12036e-07
-2.18221e-07
-2.3582e-07
-1.41755e-07
-2.4005e-07
-7.25293e-08
-2.17867e-07
-2.12346e-08
-1.62247e-07
-6.77428e-08
-3.38599e-08
1.07685e-07
-1.0784e-07
2.40406e-07
-2.02267e-07
3.10409e-07
-3.03496e-07
3.34409e-07
-4.02348e-07
3.2607e-07
-4.92605e-07
2.95363e-07
-5.69813e-07
2.48888e-07
-6.30471e-07
1.90795e-07
-6.71628e-07
1.23863e-07
-6.90796e-07
5.0394e-08
-6.86002e-07
-2.73188e-08
-6.55957e-07
-1.06525e-07
-6.00833e-07
-1.83271e-07
-5.22481e-07
-2.52926e-07
-4.25033e-07
-3.09484e-07
-3.15451e-07
-3.45402e-07
-2.03854e-07
-3.51647e-07
-1.03446e-07
-3.18275e-07
-2.98879e-08
-2.35804e-07
-9.76306e-08
-4.8065e-08
1.5575e-07
-1.51839e-07
3.4418e-07
-2.83627e-07
4.42197e-07
-4.24916e-07
4.75697e-07
-5.63624e-07
4.64779e-07
-6.91701e-07
4.23439e-07
-8.03266e-07
3.60453e-07
-8.93412e-07
2.80942e-07
-9.57613e-07
1.88064e-07
-9.91627e-07
8.44079e-08
-9.91764e-07
-2.7182e-08
-9.54484e-07
-1.43805e-07
-8.78874e-07
-2.58882e-07
-7.66701e-07
-3.65099e-07
-6.23807e-07
-4.52378e-07
-4.61205e-07
-5.08003e-07
-2.95469e-07
-5.17383e-07
-1.47798e-07
-4.65946e-07
-4.1708e-08
-3.41894e-07
-1.39338e-07
-6.72844e-08
2.23034e-07
-2.10875e-07
4.8777e-07
-3.92484e-07
6.23806e-07
-5.87575e-07
6.70788e-07
-7.80761e-07
6.57965e-07
-9.62026e-07
6.04705e-07
-1.12392e-06
5.22344e-07
-1.25974e-06
4.16764e-07
-1.36263e-06
2.90954e-07
-1.42533e-06
1.47104e-07
-1.44182e-06
-1.06895e-08
-1.4021e-06
-1.8352e-07
-1.30275e-06
-3.58238e-07
-1.14358e-06
-5.24265e-07
-9.31985e-07
-6.63973e-07
-6.85587e-07
-7.54401e-07
-4.33115e-07
-7.69855e-07
-2.11242e-07
-6.87819e-07
-5.7047e-08
-4.9609e-07
-1.96385e-07
-9.21048e-08
3.15139e-07
-2.86651e-07
6.82316e-07
-5.32129e-07
8.69284e-07
-7.97075e-07
9.35735e-07
-1.0628e-06
9.2369e-07
-1.31769e-06
8.59593e-07
-1.55302e-06
7.57672e-07
-1.76024e-06
6.23982e-07
-1.92947e-06
4.60185e-07
-2.04896e-06
2.66599e-07
-2.10553e-06
4.58775e-08
-2.08312e-06
-2.05927e-07
-1.96675e-06
-4.74608e-07
-1.74879e-06
-7.42228e-07
-1.43472e-06
-9.7804e-07
-1.05136e-06
-1.13776e-06
-6.51047e-07
-1.17017e-06
-3.04026e-07
-1.03484e-06
-7.53041e-08
-7.24811e-07
-2.71689e-07
-1.21966e-07
4.37105e-07
-3.77725e-07
9.38075e-07
-7.00506e-07
1.19206e-06
-1.05164e-06
1.28687e-06
-1.40993e-06
1.28197e-06
-1.76345e-06
1.21312e-06
-2.10365e-06
1.09787e-06
-2.42124e-06
9.41578e-07
-2.70371e-06
7.42657e-07
-2.93365e-06
4.96532e-07
-3.08763e-06
1.99864e-07
-3.13997e-06
-1.53594e-07
-3.04698e-06
-5.67596e-07
-2.77819e-06
-1.01101e-06
-2.32207e-06
-1.43416e-06
-1.71067e-06
-1.74916e-06
-1.03929e-06
-1.84155e-06
-4.55586e-07
-1.61854e-06
-9.56186e-08
-1.08478e-06
-3.67308e-07
-1.53989e-07
5.91094e-07
-4.76512e-07
1.2606e-06
-8.8504e-07
1.60059e-06
-1.33439e-06
1.73622e-06
-1.80271e-06
1.7503e-06
-2.2807e-06
1.69111e-06
-2.76357e-06
1.58074e-06
-3.24555e-06
1.42355e-06
-3.71571e-06
1.21282e-06
-4.1537e-06
9.34522e-07
-4.52442e-06
5.70586e-07
-4.78971e-06
1.11697e-07
-4.85158e-06
-5.05726e-07
-4.61446e-06
-1.24814e-06
-4.00473e-06
-2.04389e-06
-3.03109e-06
-2.7228e-06
-1.85075e-06
-3.02189e-06
-7.72753e-07
-2.69654e-06
-1.27189e-07
-1.73034e-06
-4.94498e-07
-1.83483e-07
7.74577e-07
-5.69488e-07
1.6466e-06
-1.06129e-06
2.09239e-06
-1.60825e-06
2.28318e-06
-2.19081e-06
2.33286e-06
-2.80753e-06
2.30783e-06
-3.4649e-06
2.2381e-06
-4.17022e-06
2.12887e-06
-4.92593e-06
1.96854e-06
-5.72214e-06
1.73073e-06
-6.52062e-06
1.36906e-06
-7.22329e-06
8.14366e-07
-7.76011e-06
3.10907e-08
-7.78291e-06
-1.22533e-06
-7.11304e-06
-2.71377e-06
-5.67525e-06
-4.16059e-06
-3.66162e-06
-5.03552e-06
-1.59668e-06
-4.76148e-06
-2.39685e-07
-3.08734e-06
-7.34182e-07
-1.98683e-07
9.7326e-07
-6.24239e-07
2.07216e-06
-1.17102e-06
2.63918e-06
-1.78801e-06
2.90017e-06
-2.45993e-06
3.00478e-06
-3.19609e-06
3.04399e-06
-4.02243e-06
3.06444e-06
-4.97558e-06
3.08203e-06
-6.09496e-06
3.08792e-06
-7.40455e-06
3.04031e-06
-8.87472e-06
2.83924e-06
-1.03611e-05
2.30073e-06
-1.15166e-05
1.18657e-06
-1.20862e-05
-6.55666e-07
-1.16339e-05
-3.16608e-06
-9.98628e-06
-5.80822e-06
-7.18692e-06
-7.83487e-06
-3.71603e-06
-8.23237e-06
-7.97778e-07
-6.00559e-06
-1.53196e-06
-2.19982e-07
1.19324e-06
-6.98094e-07
2.55027e-06
-1.28369e-06
3.22477e-06
-1.90578e-06
3.52226e-06
-2.56307e-06
3.66207e-06
-3.29431e-06
3.77523e-06
-4.15673e-06
3.92687e-06
-5.21771e-06
4.14301e-06
-6.54264e-06
4.41285e-06
-8.16448e-06
4.66215e-06
-1.00351e-05
4.70983e-06
-1.19853e-05
4.25093e-06
-1.37232e-05
2.92445e-06
-1.47097e-05
3.30894e-07
-1.50587e-05
-2.81706e-06
-1.42688e-05
-6.59816e-06
-1.18674e-05
-1.02362e-05
-7.70006e-06
-1.23998e-05
-2.71321e-06
-1.09924e-05
-4.24517e-06
-1.77796e-07
1.37104e-06
-5.72265e-07
2.94474e-06
-1.10442e-06
3.75692e-06
-1.66681e-06
4.08465e-06
-2.20487e-06
4.20013e-06
-2.72835e-06
4.29871e-06
-3.27872e-06
4.47724e-06
-3.91233e-06
4.77662e-06
-4.68307e-06
5.18359e-06
-5.62335e-06
5.60243e-06
-6.74035e-06
5.82682e-06
-8.03122e-06
5.5418e-06
-9.49642e-06
4.38966e-06
-1.12523e-05
2.08677e-06
-1.26753e-05
-1.39407e-06
-1.35309e-05
-5.74255e-06
-1.31248e-05
-1.06424e-05
-1.0568e-05
-1.49565e-05
-5.34532e-06
-1.62152e-05
-9.59049e-06
-6.18232e-07
1.98927e-06
-9.83441e-07
3.30995e-06
-1.06952e-06
3.843e-06
-1.19791e-06
4.21305e-06
-1.31667e-06
4.31889e-06
-1.33831e-06
4.32035e-06
-1.20825e-06
4.34718e-06
-8.95889e-07
4.46426e-06
-3.88578e-07
4.67628e-06
2.73287e-07
4.94057e-06
9.77886e-07
5.12222e-06
1.52425e-06
4.99543e-06
1.62627e-06
4.28764e-06
1.00112e-06
2.71192e-06
-3.86304e-07
-6.64876e-09
-2.47848e-06
-3.65038e-06
-4.89477e-06
-8.22607e-06
-6.53049e-06
-1.33208e-05
-5.29016e-06
-1.74555e-05
-1.48806e-05
-3.30122e-06
5.29049e-06
-5.47775e-06
5.48648e-06
-6.17932e-06
4.54457e-06
-5.79582e-06
3.82955e-06
-4.84921e-06
3.37227e-06
-3.55976e-06
3.0309e-06
-2.00283e-06
2.79025e-06
-1.86419e-07
2.64784e-06
1.89652e-06
2.59334e-06
4.25579e-06
2.5813e-06
6.83246e-06
2.54556e-06
9.45285e-06
2.37504e-06
1.17916e-05
1.94888e-06
1.33419e-05
1.16159e-06
1.33202e-05
1.51013e-08
1.20721e-05
-2.40225e-06
9.09901e-06
-5.25301e-06
4.74882e-06
-8.97058e-06
5.02499e-07
-1.32092e-05
-1.43781e-05
5.29049e-06
1.0777e-05
1.53215e-05
1.91511e-05
2.25234e-05
2.55543e-05
2.83445e-05
3.09923e-05
3.35857e-05
3.6167e-05
3.87125e-05
4.10876e-05
4.30365e-05
4.41981e-05
4.42132e-05
4.18109e-05
3.65579e-05
2.75873e-05
1.43781e-05
)
;

boundaryField
{
    movingWall
    {
        type            calculated;
        value           uniform 0;
    }
    fixedWalls
    {
        type            calculated;
        value           uniform 0;
    }
    frontAndBack
    {
        type            empty;
        value           nonuniform 0 ( );
    }
}


// ************************************************************************* //
