/*--------------------------------*- C++ -*----------------------------------*\
  =========                 |
  \\      /  F ield         | OpenFOAM: The Open Source CFD Toolbox
   \\    /   O peration     | Website:  https://openfoam.org
    \\  /    A nd           | Version:  7
     \\/     M anipulation  |
\*---------------------------------------------------------------------------*/
FoamFile
{
    version     2.0;
    format      ascii;
    class       volScalarField;
    location    "0.1";
    object      p;
}
// * * * * * * * * * * * * * * * * * * * * * * * * * * * * * * * * * * * * * //

dimensions      [0 2 -2 0 0 0 0];

internalField   nonuniform List<scalar> 
400
(
6.89083e-09
-4.83981e-05
-1.36165e-05
9.88623e-05
0.000283368
0.000536267
0.000852873
0.00122688
0.00165016
0.00211251
0.00260156
0.00310252
0.0035988
0.00407197
0.0045026
0.00487117
0.00515943
0.00535163
0.005433
0.00539569
4.4952e-05
-5.78306e-06
3.0589e-05
0.000141085
0.000319913
0.000565197
0.000873175
0.0012381
0.00165228
0.00210591
0.00258686
0.00308104
0.00357163
0.00404032
0.00446765
0.00483402
0.00512138
0.00531499
0.00539944
0.00535935
1.91307e-06
-5.65021e-05
-2.18789e-05
8.77729e-05
0.000265723
0.000510782
0.000819767
0.00118742
0.0016065
0.00206752
0.00255862
0.00306555
0.00357126
0.00405672
0.00450143
0.0048844
0.00518601
0.00539007
0.00547835
0.00542994
-0.000126814
-0.000192936
-0.000160399
-5.00174e-05
0.000130792
0.000381301
0.000698878
0.00107881
0.0015143
0.0019962
0.00251275
0.00304974
0.00358913
0.00411061
0.00459174
0.00500892
0.00533951
0.00556416
0.00566103
0.00560533
-0.000340877
-0.0004149
-0.00038401
-0.000271228
-8.44102e-05
0.000176315
0.000509007
0.000909623
0.00137196
0.00188719
0.0024435
0.00302761
0.0036193
0.00419663
0.00473438
0.00520509
0.00558136
0.00583896
0.00595105
0.00588892
-0.00064497
-0.000728473
-0.000699141
-0.000582562
-0.000387034
-0.000111878
0.000241882
0.000671108
0.00117042
0.00173142
0.00234134
0.00299133
0.00365551
0.00431098
0.00492902
0.00547673
0.00591981
0.00622652
0.00636244
0.00629333
-0.00104593
-0.00114131
-0.00111393
-0.000992713
-0.000786509
-0.000493569
-0.000113696
0.000351221
0.000897082
0.00151711
0.00220194
0.00293008
0.00368758
0.00444656
0.00517327
0.00582752
0.0063652
0.00674318
0.00691505
0.00683795
-0.0015527
-0.00166303
-0.00163856
-0.00151262
-0.00129478
-0.00098189
-0.000572175
-6.59132e-05
0.000534372
0.00122321
0.00199132
0.0028228
0.00369888
0.00459104
0.00546099
0.00625979
0.0069298
0.00741065
0.00763655
0.00755054
-0.00217671
-0.00230583
-0.00228591
-0.00215607
-0.00192686
-0.00159335
-0.00115171
-0.00060014
6.08964e-05
0.00082802
0.00169398
0.00264619
0.00366599
0.00472445
0.00577939
0.00677197
0.00762666
0.00825705
0.00856541
0.00847042
-0.00293228
-0.003085
-0.00307196
-0.00294007
-0.00270124
-0.0023482
-0.00187452
-0.00127585
-0.000550014
0.000302425
0.00127751
0.00236652
0.00355447
0.00481462
0.00610354
0.00735324
0.00846597
0.00931687
0.00975482
0.00965426
-0.0038374
-0.00401969
-0.00401646
-0.00388536
-0.00364021
-0.00327071
-0.00276713
-0.00212208
-0.0013304
-0.000389329
0.000701391
0.0019387
0.00331511
0.00481093
0.00638765
0.00797329
0.00944667
0.0106285
0.0112784
0.0111876
-0.00491531
-0.00513434
-0.00514391
-0.00501704
-0.00477036
-0.00438941
-0.00386025
-0.00317206
-0.00231679
-0.00128846
-8.23309e-05
0.00130539
0.00288067
0.00463659
0.0065516
0.00856394
0.0105376
0.0122234
0.0132337
0.013207
-0.00619753
-0.00646117
-0.00648504
-0.00636546
-0.0061231
-0.00573728
-0.00518843
-0.00446219
-0.00354837
-0.00243907
-0.00112642
0.000398408
0.00216488
0.00418083
0.00646173
0.00898595
0.0116362
0.0140931
0.0157415
0.0159563
-0.00773043
-0.00804488
-0.00807927
-0.00796746
-0.00773553
-0.00735216
-0.00678973
-0.00603035
-0.00506369
-0.00388308
-0.00247962
-0.000834349
0.00106934
0.00329508
0.00590766
0.00897267
0.0124827
0.0161257
0.0189893
0.0199723
-0.0095891
-0.00995191
-0.00997796
-0.00986766
-0.00965158
-0.00927754
-0.0087052
-0.00791356
-0.00689604
-0.00565357
-0.00418595
-0.00248195
-0.000510206
0.00180478
0.00459067
0.00805028
0.0124765
0.0178627
0.0230722
0.0261243
-0.0119081
-0.012288
-0.0122463
-0.012118
-0.0119227
-0.0115634
-0.0109784
-0.0101446
-0.00906525
-0.0077584
-0.00624462
-0.00453508
-0.00261664
-0.000424748
0.00219059
0.00549629
0.0103164
0.017499
0.0262155
0.0337938
-0.0149859
-0.0152531
-0.0149674
-0.0147698
-0.0146041
-0.0142648
-0.0136515
-0.0127418
-0.0115611
-0.0101571
-0.00858584
-0.00690149
-0.00515197
-0.00334334
-0.00136153
0.000650429
0.00409068
0.011336
0.0235983
0.0405161
-0.0196827
-0.0189669
-0.017995
-0.0177862
-0.0177086
-0.0173858
-0.0166876
-0.0156172
-0.0142461
-0.0126659
-0.0109772
-0.00928608
-0.00774474
-0.00656163
-0.00609854
-0.0058913
-0.00542064
0.000863349
0.0189693
0.0569226
-0.0251471
-0.0242754
-0.0222607
-0.0211883
-0.0208136
-0.020288
-0.0193572
-0.0180262
-0.0164044
-0.0146093
-0.0127765
-0.0110362
-0.009634
-0.00883673
-0.00905595
-0.0100486
-0.00896986
0.00400257
0.0414509
0.120884
-0.0566388
-0.0255565
-0.0177396
-0.0178154
-0.0185224
-0.0185516
-0.0180267
-0.0170836
-0.0158038
-0.0142759
-0.01268
-0.0111633
-0.0101135
-0.00965952
-0.010078
-0.00912479
-0.00129497
0.0301583
0.106517
0.232801
)
;

boundaryField
{
    movingWall
    {
        type            zeroGradient;
    }
    fixedWalls
    {
        type            zeroGradient;
    }
    frontAndBack
    {
        type            empty;
    }
}


// ************************************************************************* //
