/*--------------------------------*- C++ -*----------------------------------*\
  =========                 |
  \\      /  F ield         | OpenFOAM: The Open Source CFD Toolbox
   \\    /   O peration     | Website:  https://openfoam.org
    \\  /    A nd           | Version:  7
     \\/     M anipulation  |
\*---------------------------------------------------------------------------*/
FoamFile
{
    version     2.0;
    format      ascii;
    class       surfaceScalarField;
    location    "0.1";
    object      phi;
}
// * * * * * * * * * * * * * * * * * * * * * * * * * * * * * * * * * * * * * //

dimensions      [0 3 -1 0 0 0 0];

internalField   nonuniform List<scalar> 
760
(
-2.80885e-08
2.8088e-08
-8.50824e-08
5.6994e-08
-1.47908e-07
6.28259e-08
-2.08391e-07
6.04834e-08
-2.63917e-07
5.55253e-08
-3.12994e-07
4.9077e-08
-3.54346e-07
4.13526e-08
-3.86803e-07
3.24564e-08
-4.09303e-07
2.25004e-08
-4.20929e-07
1.16262e-08
-4.20923e-07
-6.48894e-12
-4.08786e-07
-1.2136e-08
-3.84291e-07
-2.44957e-08
-3.47589e-07
-3.6701e-08
-2.99285e-07
-4.83038e-08
-2.4052e-07
-5.87654e-08
-1.7318e-07
-6.73403e-08
-1.00958e-07
-7.22216e-08
-3.40993e-08
-6.68585e-08
-3.40993e-08
-5.90565e-08
8.71445e-08
-1.58853e-07
1.56791e-07
-2.6599e-07
1.69963e-07
-3.68963e-07
1.63456e-07
-4.63208e-07
1.49771e-07
-5.4599e-07
1.31859e-07
-6.15103e-07
1.10465e-07
-6.68628e-07
8.59816e-08
-7.04913e-07
5.87853e-08
-7.22586e-07
2.93001e-08
-7.20636e-07
-1.95594e-09
-6.9836e-07
-3.44123e-08
-6.55614e-07
-6.72411e-08
-5.92819e-07
-9.94963e-08
-5.11106e-07
-1.30016e-07
-4.12483e-07
-1.57389e-07
-3.00221e-07
-1.79602e-07
-1.80386e-07
-1.92057e-07
-6.73997e-08
-1.79845e-07
-1.01499e-07
-6.94418e-08
1.56586e-07
-1.8466e-07
2.7201e-07
-3.07363e-07
2.92666e-07
-4.24905e-07
2.80998e-07
-5.32315e-07
2.57181e-07
-6.26551e-07
2.26095e-07
-7.05157e-07
1.89071e-07
-7.66015e-07
1.46839e-07
-8.07306e-07
1.00077e-07
-8.27529e-07
4.95232e-08
-8.25527e-07
-3.95809e-09
-8.00507e-07
-5.9432e-08
-7.52226e-07
-1.15522e-07
-6.8106e-07
-1.70663e-07
-5.88174e-07
-2.22901e-07
-4.75738e-07
-2.69825e-07
-3.47374e-07
-3.07965e-07
-2.09809e-07
-3.29621e-07
-7.91418e-08
-3.10512e-07
-1.80641e-07
-7.47966e-08
2.31383e-07
-1.994e-07
3.96613e-07
-3.31872e-07
4.25138e-07
-4.58575e-07
4.07701e-07
-5.74324e-07
3.72931e-07
-6.75982e-07
3.27753e-07
-7.61013e-07
2.74102e-07
-8.27222e-07
2.13048e-07
-8.72704e-07
1.4556e-07
-8.95841e-07
7.26596e-08
-8.95325e-07
-4.4737e-09
-8.70102e-07
-8.46549e-08
-8.1968e-07
-1.65945e-07
-7.44155e-07
-2.46187e-07
-6.44454e-07
-3.22602e-07
-5.22631e-07
-3.91649e-07
-3.82439e-07
-4.48158e-07
-2.31216e-07
-4.80843e-07
-8.70082e-08
-4.5472e-07
-2.67649e-07
-8.07224e-08
3.12106e-07
-2.15643e-07
5.31534e-07
-3.59032e-07
5.68527e-07
-4.96089e-07
5.44757e-07
-6.21343e-07
4.98185e-07
-7.31563e-07
4.37973e-07
-8.24164e-07
3.66703e-07
-8.96906e-07
2.8579e-07
-9.47807e-07
1.9646e-07
-9.75104e-07
9.99574e-08
-9.77344e-07
-2.23453e-09
-9.52976e-07
-1.09022e-07
-9.01145e-07
-2.17776e-07
-8.21439e-07
-3.25893e-07
-7.14297e-07
-4.29744e-07
-5.81457e-07
-5.24489e-07
-4.26751e-07
-6.02864e-07
-2.58396e-07
-6.49198e-07
-9.71386e-08
-6.15978e-07
-3.64788e-07
-8.85325e-08
4.00638e-07
-2.36693e-07
6.79694e-07
-3.94018e-07
7.25852e-07
-5.44269e-07
6.95008e-07
-6.81607e-07
6.35523e-07
-8.02701e-07
5.59067e-07
-9.04952e-07
4.68954e-07
-9.86116e-07
3.66954e-07
-1.04416e-06
2.54502e-07
-1.07713e-06
1.32929e-07
-1.0836e-06
4.2353e-09
-1.06107e-06
-1.31555e-07
-1.00833e-06
-2.70513e-07
-9.24131e-07
-4.10089e-07
-8.08078e-07
-5.45797e-07
-6.61262e-07
-6.71305e-07
-4.87435e-07
-7.76691e-07
-2.95961e-07
-8.40672e-07
-1.11342e-07
-8.00597e-07
-4.7613e-07
-9.86382e-08
4.99276e-07
-2.63684e-07
8.4474e-07
-4.38612e-07
9.0078e-07
-6.05383e-07
8.61779e-07
-7.57724e-07
7.87865e-07
-8.92244e-07
6.93587e-07
-1.0064e-06
5.83112e-07
-1.09804e-06
4.58597e-07
-1.16519e-06
3.21651e-07
-1.20589e-06
1.73623e-07
-1.21783e-06
1.6181e-08
-1.1989e-06
-1.50492e-07
-1.14641e-06
-3.22998e-07
-1.05801e-06
-4.98489e-07
-9.31951e-07
-6.7186e-07
-7.68092e-07
-8.35164e-07
-5.69687e-07
-9.75096e-07
-3.4741e-07
-1.06295e-06
-1.30966e-07
-1.01704e-06
-6.07096e-07
-1.11407e-07
6.10683e-07
-2.97559e-07
1.03089e-06
-4.94218e-07
1.09744e-06
-6.81105e-07
1.04867e-06
-8.51481e-07
9.5824e-07
-1.00198e-06
8.44083e-07
-1.13026e-06
7.11392e-07
-1.23442e-06
5.62763e-07
-1.31269e-06
3.99919e-07
-1.36309e-06
2.24022e-07
-1.38327e-06
3.63628e-08
-1.37017e-06
-1.63596e-07
-1.32014e-06
-3.73027e-07
-1.22906e-06
-5.89571e-07
-1.09298e-06
-8.07934e-07
-9.09517e-07
-1.01863e-06
-6.80461e-07
-1.20415e-06
-4.17677e-07
-1.32573e-06
-1.5801e-07
-1.27671e-06
-7.65106e-07
-1.27367e-07
7.3805e-07
-3.39589e-07
1.24311e-06
-5.62638e-07
1.32049e-06
-7.73479e-07
1.25951e-06
-9.64918e-07
1.14968e-06
-1.13379e-06
1.01295e-06
-1.2782e-06
8.55805e-07
-1.39679e-06
6.81349e-07
-1.48823e-06
4.91363e-07
-1.55086e-06
2.8665e-07
-1.58208e-06
6.75875e-08
-1.57847e-06
-1.67208e-07
-1.53481e-06
-4.16692e-07
-1.44464e-06
-6.79743e-07
-1.30065e-06
-9.51918e-07
-1.09644e-06
-1.22284e-06
-8.30442e-07
-1.47015e-06
-5.14789e-07
-1.64139e-06
-1.95912e-07
-1.59558e-06
-9.61019e-07
-1.47346e-07
8.85396e-07
-3.91664e-07
1.48743e-06
-6.4644e-07
1.57526e-06
-8.85283e-07
1.49835e-06
-1.10066e-06
1.36506e-06
-1.28993e-06
1.20222e-06
-1.45202e-06
1.0179e-06
-1.5865e-06
8.15832e-07
-1.69294e-06
5.97808e-07
-1.77032e-06
3.64022e-07
-1.81643e-06
1.13705e-07
-1.82725e-06
-1.56396e-07
-1.79617e-06
-4.47769e-07
-1.71374e-06
-7.62174e-07
-1.56773e-06
-1.09793e-06
-1.34492e-06
-1.44565e-06
-1.03668e-06
-1.7784e-06
-6.5258e-07
-2.02549e-06
-2.51086e-07
-1.99708e-06
-1.2121e-06
-1.72677e-07
1.05807e-06
-4.56687e-07
1.77144e-06
-7.49392e-07
1.86797e-06
-1.0204e-06
1.76936e-06
-1.26217e-06
1.60683e-06
-1.47311e-06
1.41316e-06
-1.65357e-06
1.19835e-06
-1.80462e-06
9.66882e-07
-1.9273e-06
7.20494e-07
-2.0219e-06
4.58621e-07
-2.08694e-06
1.78741e-07
-2.11885e-06
-1.24482e-07
-2.10966e-06
-4.56961e-07
-2.04666e-06
-8.25172e-07
-1.91102e-06
-1.23357e-06
-1.6787e-06
-1.67797e-06
-1.32715e-06
-2.12994e-06
-8.56198e-07
-2.49644e-06
-3.36573e-07
-2.5167e-06
-1.54868e-06
-2.05581e-07
1.26365e-06
-5.39246e-07
2.10511e-06
-8.77138e-07
2.20586e-06
-1.18433e-06
2.07655e-06
-1.45408e-06
1.87657e-06
-1.6867e-06
1.64579e-06
-1.88477e-06
1.39642e-06
-2.05164e-06
1.13376e-06
-2.1906e-06
8.59451e-07
-2.30401e-06
5.72031e-07
-2.39232e-06
2.67048e-07
-2.45329e-06
-6.35065e-08
-2.47881e-06
-4.31448e-07
-2.45369e-06
-8.50287e-07
-2.35152e-06
-1.33574e-06
-2.13244e-06
-1.89705e-06
-1.74858e-06
-2.51381e-06
-1.17345e-06
-3.07157e-06
-4.81215e-07
-3.20894e-06
-2.02989e-06
-2.49909e-07
1.51356e-06
-6.46788e-07
2.50199e-06
-1.03827e-06
2.59734e-06
-1.38497e-06
2.42325e-06
-1.68259e-06
2.1742e-06
-1.93484e-06
1.89803e-06
-2.14756e-06
1.60914e-06
-2.32731e-06
1.31351e-06
-2.4805e-06
1.01264e-06
-2.61263e-06
7.0416e-07
-2.72725e-06
3.81672e-07
-2.82583e-06
3.50704e-08
-2.90197e-06
-3.5531e-07
-2.94143e-06
-8.1082e-07
-2.91191e-06
-1.36527e-06
-2.75404e-06
-2.05491e-06
-2.37788e-06
-2.88997e-06
-1.69642e-06
-3.75302e-06
-7.51196e-07
-4.15417e-06
-2.78109e-06
-3.12604e-07
1.82617e-06
-7.91741e-07
2.98112e-06
-1.24601e-06
3.05162e-06
-1.63351e-06
2.81075e-06
-1.95595e-06
2.49664e-06
-2.22251e-06
2.16459e-06
-2.44363e-06
1.83026e-06
-2.63002e-06
1.4999e-06
-2.79211e-06
1.17473e-06
-2.93961e-06
8.51663e-07
-3.08103e-06
5.23093e-07
-3.2221e-06
1.76138e-07
-3.3657e-06
-2.11705e-07
-3.50331e-06
-6.73214e-07
-3.60529e-06
-1.26329e-06
-3.59665e-06
-2.06355e-06
-3.32733e-06
-3.15929e-06
-2.58707e-06
-4.49329e-06
-1.28284e-06
-5.4584e-06
-4.06393e-06
-4.06617e-07
2.23278e-06
-9.95453e-07
3.56996e-06
-1.52064e-06
3.57681e-06
-1.94531e-06
3.23541e-06
-2.28403e-06
2.83536e-06
-2.55427e-06
2.43482e-06
-2.77234e-06
2.04833e-06
-2.95388e-06
1.68144e-06
-3.11395e-06
1.3348e-06
-3.26713e-06
1.00484e-06
-3.4278e-06
6.8377e-07
-3.61018e-06
3.58511e-07
-3.82881e-06
6.932e-09
-4.09336e-06
-4.08668e-07
-4.39386e-06
-9.62788e-07
-4.6595e-06
-1.79791e-06
-4.67252e-06
-3.14626e-06
-4.0105e-06
-5.15532e-06
-2.25449e-06
-7.21441e-06
-6.31841e-06
-5.56853e-07
2.78964e-06
-1.29563e-06
4.30874e-06
-1.8916e-06
4.17278e-06
-2.33703e-06
3.68084e-06
-2.6712e-06
3.16953e-06
-2.92275e-06
2.68637e-06
-3.1148e-06
2.24039e-06
-3.26851e-06
1.83514e-06
-3.4038e-06
1.4701e-06
-3.53989e-06
1.14093e-06
-3.69667e-06
8.40546e-07
-3.89712e-06
5.58968e-07
-4.16927e-06
2.79083e-07
-4.54973e-06
-2.82129e-08
-5.06384e-06
-4.48675e-07
-5.67794e-06
-1.18382e-06
-6.12595e-06
-2.69825e-06
-5.72135e-06
-5.55991e-06
-3.56571e-06
-9.37004e-06
-9.88413e-06
-8.14867e-07
3.6045e-06
-1.75906e-06
5.25293e-06
-2.38858e-06
4.8023e-06
-2.79312e-06
4.08538e-06
-3.0571e-06
3.43351e-06
-3.22415e-06
2.85342e-06
-3.32623e-06
2.34247e-06
-3.39163e-06
1.90054e-06
-3.44525e-06
1.52372e-06
-3.50878e-06
1.20446e-06
-3.60341e-06
9.35172e-07
-3.75372e-06
7.09279e-07
-3.99626e-06
5.21625e-07
-4.37798e-06
3.53504e-07
-4.94618e-06
1.19528e-07
-5.73142e-06
-3.98585e-07
-6.50075e-06
-1.92892e-06
-6.46268e-06
-5.59799e-06
-4.42817e-06
-1.14045e-05
-1.43123e-05
-1.31811e-06
4.92261e-06
-2.46387e-06
6.39869e-06
-2.90035e-06
5.23878e-06
-2.96664e-06
4.15167e-06
-2.87938e-06
3.34625e-06
-2.71617e-06
2.69021e-06
-2.52111e-06
2.14741e-06
-2.32687e-06
1.70629e-06
-2.15661e-06
1.35345e-06
-2.02465e-06
1.0725e-06
-1.94182e-06
8.52349e-07
-1.91706e-06
6.84517e-07
-1.96972e-06
5.74285e-07
-2.1271e-06
5.10883e-07
-2.4594e-06
4.51828e-07
-2.94719e-06
8.92059e-08
-3.6346e-06
-1.2415e-06
-4.02488e-06
-5.20772e-06
-3.34331e-06
-1.20861e-05
-1.76556e-05
-3.7533e-06
8.67592e-06
-2.95941e-06
5.6048e-06
-1.22096e-06
3.50033e-06
2.44615e-07
2.68609e-06
1.46806e-06
2.12281e-06
2.50732e-06
1.65096e-06
3.38282e-06
1.27191e-06
4.10587e-06
9.83242e-07
4.6929e-06
7.6643e-07
5.16406e-06
6.01342e-07
5.53609e-06
4.80313e-07
5.82819e-06
3.92415e-07
6.0483e-06
3.5418e-07
6.21144e-06
3.47739e-07
6.30298e-06
3.60291e-07
6.20652e-06
1.85661e-07
5.76691e-06
-8.01892e-07
4.44412e-06
-3.88492e-06
2.33742e-06
-9.97942e-06
-1.53182e-05
8.67592e-06
1.42807e-05
1.7781e-05
2.04671e-05
2.25899e-05
2.42409e-05
2.55128e-05
2.6496e-05
2.72625e-05
2.78638e-05
2.83441e-05
2.87365e-05
2.90907e-05
2.94385e-05
2.97988e-05
2.99844e-05
2.91825e-05
2.52976e-05
1.53182e-05
)
;

boundaryField
{
    movingWall
    {
        type            calculated;
        value           uniform 0;
    }
    fixedWalls
    {
        type            calculated;
        value           uniform 0;
    }
    frontAndBack
    {
        type            empty;
        value           nonuniform 0();
    }
}


// ************************************************************************* //
