/*--------------------------------*- C++ -*----------------------------------*\
  =========                 |
  \\      /  F ield         | OpenFOAM: The Open Source CFD Toolbox
   \\    /   O peration     | Website:  https://openfoam.org
    \\  /    A nd           | Version:  7
     \\/     M anipulation  |
\*---------------------------------------------------------------------------*/
FoamFile
{
    version     2.0;
    format      ascii;
    class       volVectorField;
    location    "0.1";
    object      U;
}
// * * * * * * * * * * * * * * * * * * * * * * * * * * * * * * * * * * * * * //

dimensions      [0 1 -1 0 0 0 0];

internalField   nonuniform List<vector> 
400
(
(-0.000233667 0.000226024 0)
(-0.00106886 0.000490809 0)
(-0.00232179 0.000547392 0)
(-0.0035766 0.000528318 0)
(-0.00474355 0.000486308 0)
(-0.00579391 0.000431647 0)
(-0.00670198 0.000365886 0)
(-0.00744329 0.000289674 0)
(-0.00799547 0.000203805 0)
(-0.00833869 0.000109393 0)
(-0.0084561 7.96628e-06 0)
(-0.00833505 -9.88181e-05 0)
(-0.0079681 -0.000208009 0)
(-0.00735435 -0.000316302 0)
(-0.00650124 -0.00041966 0)
(-0.00542614 -0.000513273 0)
(-0.00415676 -0.000590635 0)
(-0.00273452 -0.000635397 0)
(-0.00128446 -0.000586031 0)
(-0.000288674 -0.000285762 0)
(-0.000518568 0.00107768 0)
(-0.00208428 0.0020241 0)
(-0.00423812 0.00220971 0)
(-0.00637857 0.00212712 0)
(-0.00836317 0.00195152 0)
(-0.0101417 0.00172191 0)
(-0.0116678 0.00144705 0)
(-0.0129001 0.00113137 0)
(-0.0138029 0.000779351 0)
(-0.0143458 0.000396249 0)
(-0.014505 -1.14715e-05 0)
(-0.014263 -0.000435898 0)
(-0.0136113 -0.000866457 0)
(-0.0125522 -0.00129036 0)
(-0.011101 -0.00169214 0)
(-0.00928917 -0.00205317 0)
(-0.00716537 -0.00234728 0)
(-0.00479849 -0.00251311 0)
(-0.00237782 -0.00234333 0)
(-0.000595281 -0.00127647 0)
(-0.000610437 0.00240563 0)
(-0.00243299 0.00423526 0)
(-0.00491085 0.00457068 0)
(-0.00735854 0.00439221 0)
(-0.00962194 0.0040225 0)
(-0.0116478 0.00353886 0)
(-0.0133845 0.0029618 0)
(-0.0147858 0.00230238 0)
(-0.0158125 0.00157107 0)
(-0.0164315 0.000779409 0)
(-0.0166159 -5.91332e-05 0)
(-0.0163462 -0.000928169 0)
(-0.0156116 -0.00180702 0)
(-0.0144131 -0.00267027 0)
(-0.0127658 -0.00348705 0)
(-0.010703 -0.00421959 0)
(-0.0082779 -0.00481393 0)
(-0.00556561 -0.00514904 0)
(-0.00277583 -0.00483889 0)
(-0.000701187 -0.00278412 0)
(-0.000655361 0.00386127 0)
(-0.00262402 0.00665186 0)
(-0.00530346 0.00714095 0)
(-0.00794419 0.00685218 0)
(-0.0103832 0.00626991 0)
(-0.0125671 0.00551133 0)
(-0.0144425 0.00460886 0)
(-0.0159618 0.00358046 0)
(-0.0170842 0.00244262 0)
(-0.0177745 0.00121305 0)
(-0.0180035 -8.80263e-05 0)
(-0.0177473 -0.00143734 0)
(-0.01699 -0.00280353 0)
(-0.0157272 -0.00414861 0)
(-0.0139686 -0.00542537 0)
(-0.0117436 -0.00657478 0)
(-0.00910517 -0.00751154 0)
(-0.00613219 -0.0080483 0)
(-0.00305705 -0.00759879 0)
(-0.000769598 -0.00445432 0)
(-0.000705957 0.00541216 0)
(-0.00283498 0.00923887 0)
(-0.00573717 0.00989076 0)
(-0.00859477 0.00948158 0)
(-0.0112331 0.0086727 0)
(-0.0135978 0.00762384 0)
(-0.0156346 0.00637983 0)
(-0.0172951 0.00496539 0)
(-0.0185373 0.00340256 0)
(-0.0193238 0.00171421 0)
(-0.0196228 -7.38115e-05 0)
(-0.0194039 -0.00193415 0)
(-0.0186425 -0.00382508 0)
(-0.0173253 -0.00569723 0)
(-0.0154516 -0.00748656 0)
(-0.0130425 -0.00910987 0)
(-0.0101473 -0.0104446 0)
(-0.00685035 -0.0112248 0)
(-0.00341684 -0.0106349 0)
(-0.000858555 -0.00628617 0)
(-0.000773843 0.0070974 0)
(-0.00311062 0.0120569 0)
(-0.0062973 0.0128848 0)
(-0.00943147 0.0123428 0)
(-0.0123235 0.0112885 0)
(-0.0149178 0.00992849 0)
(-0.0171598 0.00832131 0)
(-0.0190009 0.0064986 0)
(-0.0203987 0.0044871 0)
(-0.021314 0.00231282 0)
(-0.0217131 3.56215e-06 0)
(-0.0215566 -0.00240475 0)
(-0.0208067 -0.00487011 0)
(-0.019438 -0.00733229 0)
(-0.0174326 -0.00970991 0)
(-0.0147958 -0.0118919 0)
(-0.0115681 -0.0137087 0)
(-0.00783864 -0.0147965 0)
(-0.003918 -0.0140669 0)
(-0.000984497 -0.00835637 0)
(-0.00086239 0.00896095 0)
(-0.00346581 0.0151748 0)
(-0.00701354 0.0161931 0)
(-0.0104955 0.0155009 0)
(-0.0137036 0.0141753 0)
(-0.0165821 0.0124767 0)
(-0.0190769 0.010479 0)
(-0.0211413 0.0082213 0)
(-0.0227349 0.00573421 0)
(-0.0238188 0.00304492 0)
(-0.0243512 0.000180497 0)
(-0.0242877 -0.00282301 0)
(-0.0235795 -0.00592415 0)
(-0.0221754 -0.00905681 0)
(-0.0200319 -0.0121242 0)
(-0.0171276 -0.0149839 0)
(-0.0134827 -0.0174067 0)
(-0.00918607 -0.0189009 0)
(-0.00460842 -0.0180426 0)
(-0.00115941 -0.0107601 0)
(-0.000974877 0.0110519 0)
(-0.00391337 0.0186706 0)
(-0.00791002 0.0198935 0)
(-0.0118186 0.0190248 0)
(-0.0154089 0.0173929 0)
(-0.0186267 0.0153198 0)
(-0.0214213 0.012898 0)
(-0.023751 0.0101749 0)
(-0.0255801 0.00718389 0)
(-0.0268725 0.00395072 0)
(-0.0275855 0.000497832 0)
(-0.0276655 -0.00314988 0)
(-0.0270449 -0.00695495 0)
(-0.0256447 -0.0108544 0)
(-0.0233814 -0.0147422 0)
(-0.0201871 -0.0184433 0)
(-0.0160405 -0.021653 0)
(-0.0110153 -0.0237083 0)
(-0.00555777 -0.0227553 0)
(-0.0014016 -0.0136225 0)
(-0.00111637 0.013428 0)
(-0.00447129 0.0226353 0)
(-0.00901853 0.0240733 0)
(-0.0134405 0.0229893 0)
(-0.0174811 0.0210025 0)
(-0.0210915 0.0185081 0)
(-0.0242288 0.0156215 0)
(-0.0268616 0.0123995 0)
(-0.028965 0.0088773 0)
(-0.0305106 0.00507542 0)
(-0.0314574 0.00100428 0)
(-0.0317462 -0.0033277 0)
(-0.0312902 -0.00790358 0)
(-0.029972 -0.0126771 0)
(-0.0276505 -0.0175464 0)
(-0.0241819 -0.0223101 0)
(-0.0194643 -0.0265716 0)
(-0.0135208 -0.0294353 0)
(-0.00688336 -0.0284703 0)
(-0.0017434 -0.01712 0)
(-0.0012951 0.0161604 0)
(-0.00516706 0.0271777 0)
(-0.0103855 0.0288322 0)
(-0.0154167 0.0274736 0)
(-0.0199757 0.0250641 0)
(-0.0240259 0.022087 0)
(-0.0275396 0.0186862 0)
(-0.0305039 0.0149298 0)
(-0.0329128 0.0108539 0)
(-0.0347542 0.00646954 0)
(-0.0359974 0.00176779 0)
(-0.0365826 -0.00327227 0)
(-0.0364045 -0.00867183 0)
(-0.0353025 -0.0144255 0)
(-0.0330568 -0.0204635 0)
(-0.0294047 -0.0265805 0)
(-0.0240957 -0.0322819 0)
(-0.0170259 -0.0363563 0)
(-0.00879697 -0.0355664 0)
(-0.00224698 -0.0215205 0)
(-0.00152485 0.0193409 0)
(-0.00604414 0.0324325 0)
(-0.0120808 0.0342856 0)
(-0.0178267 0.032561 0)
(-0.0229681 0.0296328 0)
(-0.0274926 0.0260915 0)
(-0.0313998 0.0221161 0)
(-0.0347066 0.0177888 0)
(-0.037438 0.0131455 0)
(-0.0396097 0.00818378 0)
(-0.0412128 0.002867 0)
(-0.0422005 -0.00286905 0)
(-0.0424602 -0.00910836 0)
(-0.0417879 -0.0159216 0)
(-0.0398681 -0.023322 0)
(-0.0362645 -0.0311564 0)
(-0.0304673 -0.0388582 0)
(-0.0220895 -0.0448073 0)
(-0.0117101 -0.0446022 0)
(-0.00304364 -0.0272659 0)
(-0.00182956 0.023096 0)
(-0.00717333 0.0385732 0)
(-0.014212 0.0405687 0)
(-0.0207868 0.0383358 0)
(-0.0265622 0.034752 0)
(-0.0315724 0.0305375 0)
(-0.0358617 0.0259136 0)
(-0.0394928 0.0209783 0)
(-0.0425361 0.015767 0)
(-0.0450515 0.0102606 0)
(-0.0470705 0.00438787 0)
(-0.0485805 -0.00197315 0)
(-0.0494837 -0.00899604 0)
(-0.049555 -0.0168737 0)
(-0.0483862 -0.025785 0)
(-0.0453146 -0.0357462 0)
(-0.0394099 -0.0462296 0)
(-0.0297083 -0.0551539 0)
(-0.0164783 -0.0564343 0)
(-0.00443561 -0.0351761 0)
(-0.00225242 0.0276113 0)
(-0.00867367 0.0458328 0)
(-0.0169486 0.0478404 0)
(-0.0244684 0.0448764 0)
(-0.0309022 0.040442 0)
(-0.0363698 0.0354092 0)
(-0.0409858 0.0300452 0)
(-0.0448779 0.0244644 0)
(-0.0481796 0.0187009 0)
(-0.051013 0.0127172 0)
(-0.0534724 0.00640382 0)
(-0.0556139 -0.000428492 0)
(-0.0573972 -0.00804899 0)
(-0.0586324 -0.01684 0)
(-0.0588773 -0.0272547 0)
(-0.0572379 -0.0396892 0)
(-0.0521766 -0.0539535 0)
(-0.0416588 -0.0676665 0)
(-0.0249237 -0.0724416 0)
(-0.0071372 -0.0469767 0)
(-0.00287462 0.0331776 0)
(-0.010752 0.0545371 0)
(-0.0205625 0.0562836 0)
(-0.0291258 0.0522386 0)
(-0.0361858 0.0466797 0)
(-0.042017 0.0406392 0)
(-0.0468376 0.0344236 0)
(-0.0508612 0.0281596 0)
(-0.0543016 0.0218778 0)
(-0.0573618 0.0155246 0)
(-0.0602259 0.00895815 0)
(-0.0630412 0.00193092 0)
(-0.0659053 -0.00593189 0)
(-0.0687868 -0.0152175 0)
(-0.0713561 -0.0267703 0)
(-0.0726408 -0.0416788 0)
(-0.0703969 -0.0607211 0)
(-0.0607963 -0.0819381 0)
(-0.0405046 -0.0943167 0)
(-0.0126082 -0.0659562 0)
(-0.00385358 0.0402816 0)
(-0.0137786 0.0651553 0)
(-0.0254978 0.0660873 0)
(-0.0351283 0.0604177 0)
(-0.0426669 0.0533643 0)
(-0.0486569 0.0460808 0)
(-0.0534545 0.0388832 0)
(-0.0573762 0.031897 0)
(-0.0607284 0.0251461 0)
(-0.0638055 0.0185652 0)
(-0.066895 0.0119971 0)
(-0.0702828 0.00516953 0)
(-0.0742635 -0.00236625 0)
(-0.0791121 -0.0113398 0)
(-0.0849282 -0.0230228 0)
(-0.0910919 -0.0395049 0)
(-0.0948187 -0.0635427 0)
(-0.0895805 -0.095318 0)
(-0.0670398 -0.122272 0)
(-0.0223589 -0.0970105 0)
(-0.00550166 0.0498464 0)
(-0.0184347 0.0784041 0)
(-0.0324814 0.0773896 0)
(-0.0429583 0.0692638 0)
(-0.0505571 0.0602535 0)
(-0.0562571 0.051455 0)
(-0.0605712 0.0431255 0)
(-0.0639284 0.0353709 0)
(-0.0667343 0.0282029 0)
(-0.0693736 0.0215469 0)
(-0.0722289 0.0152513 0)
(-0.0757172 0.00907353 0)
(-0.0803422 0.00261686 0)
(-0.0867828 -0.00487249 0)
(-0.0958559 -0.0149196 0)
(-0.107908 -0.0307708 0)
(-0.120079 -0.0586287 0)
(-0.122538 -0.10452 0)
(-0.100774 -0.15847 0)
(-0.0330548 -0.152726 0)
(-0.0084686 0.0639466 0)
(-0.0260245 0.0948272 0)
(-0.0426388 0.0896759 0)
(-0.0528242 0.0781644 0)
(-0.0591042 0.06667 0)
(-0.0631639 0.0560153 0)
(-0.06568 0.0463661 0)
(-0.067225 0.0377962 0)
(-0.0683177 0.0302828 0)
(-0.0694087 0.0237163 0)
(-0.0709098 0.0179513 0)
(-0.0732555 0.0128218 0)
(-0.0770311 0.00812672 0)
(-0.0830817 0.00333096 0)
(-0.0926914 -0.00318497 0)
(-0.1074 -0.0166435 0)
(-0.125362 -0.0484048 0)
(-0.135037 -0.116362 0)
(-0.120676 -0.21735 0)
(-0.0297891 -0.256977 0)
(-0.0129666 0.0795678 0)
(-0.0390825 0.117868 0)
(-0.0569994 0.104431 0)
(-0.0601269 0.0848954 0)
(-0.0590122 0.0693597 0)
(-0.056118 0.0564618 0)
(-0.0523136 0.0456164 0)
(-0.0483018 0.0366028 0)
(-0.0445977 0.0291988 0)
(-0.0415388 0.023149 0)
(-0.0393568 0.0182655 0)
(-0.0382082 0.0144178 0)
(-0.0383857 0.0116266 0)
(-0.0403007 0.00957459 0)
(-0.0454328 0.00668829 0)
(-0.0551689 -0.00408362 0)
(-0.0708703 -0.0404432 0)
(-0.082984 -0.131939 0)
(-0.0911045 -0.280959 0)
(0.00889662 -0.370847 0)
(-0.0765464 0.151111 0)
(-0.073817 0.123962 0)
(-0.0399059 0.0856044 0)
(-0.00913512 0.067233 0)
(0.0178691 0.0541092 0)
(0.0406724 0.0429624 0)
(0.0598502 0.0338284 0)
(0.0757229 0.0266948 0)
(0.0886846 0.021191 0)
(0.0991759 0.0169106 0)
(0.107499 0.0136608 0)
(0.114198 0.0112968 0)
(0.11914 0.0101002 0)
(0.123168 0.00990564 0)
(0.124347 0.0105767 0)
(0.12269 0.00648956 0)
(0.110069 -0.0175894 0)
(0.102246 -0.0961476 0)
(0.0503187 -0.240992 0)
(0.108001 -0.343765 0)
(0.185572 0.127142 0)
(0.227496 0.10388 0)
(0.312912 0.0740929 0)
(0.38296 0.0548229 0)
(0.433559 0.0417106 0)
(0.470806 0.0318165 0)
(0.499268 0.0240858 0)
(0.521391 0.0181389 0)
(0.538569 0.0136866 0)
(0.552147 0.0103718 0)
(0.562574 0.00799986 0)
(0.571674 0.00623179 0)
(0.577884 0.0052001 0)
(0.586071 0.00461622 0)
(0.587425 0.00452866 0)
(0.594858 0.00479041 0)
(0.573765 0.000229801 0)
(0.556036 -0.0116309 0)
(0.436925 -0.0461717 0)
(0.346138 -0.109509 0)
)
;

boundaryField
{
    movingWall
    {
        type            fixedValue;
        value           uniform (1 0 0);
    }
    fixedWalls
    {
        type            noSlip;
    }
    frontAndBack
    {
        type            empty;
    }
}


// ************************************************************************* //
