/*--------------------------------*- C++ -*----------------------------------*\
  =========                 |
  \\      /  F ield         | OpenFOAM: The Open Source CFD Toolbox
   \\    /   O peration     | Website:  https://openfoam.org
    \\  /    A nd           | Version:  9
     \\/     M anipulation  |
\*---------------------------------------------------------------------------*/
FoamFile
{
    format      ascii;
    class       volScalarField;
    location    "0.5";
    object      p;
}
// * * * * * * * * * * * * * * * * * * * * * * * * * * * * * * * * * * * * * //

dimensions      [ 0 2 -2 0 0 0 0 ];

internalField   nonuniform List<scalar> 
400
(
-3.39296e-09
-0.000547747
-0.00113643
-0.00155508
-0.00169805
-0.00152051
-0.00100808
-0.000161821
0.000999876
0.00242928
0.00403651
0.00568246
0.00718901
0.00836369
0.00904399
0.0091487
0.00872089
0.00794355
0.0071061
0.00658918
0.00053893
-3.03646e-05
-0.000481979
-0.000751249
-0.000808883
-0.000625915
-0.000187886
0.000508713
0.00145371
0.00261275
0.00391623
0.0052573
0.00649065
0.00746114
0.00803751
0.00815497
0.00784898
0.00726171
0.00660158
0.00607907
0.00115893
0.000377803
-0.000100004
-0.000332356
-0.000372845
-0.000214966
0.000151155
0.000733754
0.00153472
0.00253657
0.00368877
0.00489967
0.00603743
0.00695056
0.00750265
0.0076166
0.00731208
0.00671029
0.00596684
0.00521974
0.00160307
0.000546681
-3.28572e-05
-0.000293957
-0.000365828
-0.000262972
2.08237e-05
0.000501043
0.00119556
0.00210706
0.00320391
0.00440717
0.00558308
0.00656324
0.00717984
0.00731826
0.00696845
0.00623813
0.00525913
0.00414941
0.00166276
0.000335288
-0.000364113
-0.000683681
-0.00081954
-0.000802496
-0.000625989
-0.000262967
0.000325428
0.00116766
0.00225598
0.0035295
0.00484826
0.00601644
0.00681422
0.00706195
0.00669538
0.00580046
0.00449896
0.00292135
0.00116075
-0.00041319
-0.00123545
-0.00163554
-0.0018681
-0.00197566
-0.00194717
-0.00173932
-0.00128612
-0.00052403
0.00057616
0.00197511
0.00354132
0.00504609
0.0061967
0.00671177
0.00643113
0.00539078
0.00369849
0.00152337
-5.38518e-05
-0.00184075
-0.00278394
-0.00328662
-0.00365476
-0.00393991
-0.00412393
-0.00414341
-0.00389837
-0.00327821
-0.00219847
-0.000653978
0.00125306
0.00327001
0.00501523
0.00605887
0.00607774
0.00499597
0.00287045
-7.5931e-05
-0.00210696
-0.00406735
-0.00512749
-0.00575693
-0.00630753
-0.00684011
-0.00732985
-0.00769179
-0.00778598
-0.00744129
-0.00649487
-0.00485303
-0.00255554
0.000154024
0.00280565
0.00477144
0.00546826
0.00459355
0.00205546
-0.00188007
-0.00509327
-0.00718412
-0.00835482
-0.00913404
-0.00991687
-0.0107777
-0.0116897
-0.0125491
-0.0131736
-0.0133186
-0.0127146
-0.0111339
-0.0084899
-0.00495337
-0.00104731
0.00237138
0.00434194
0.004151
0.00135639
-0.00380829
-0.00906651
-0.0112447
-0.0125116
-0.0134497
-0.0145004
-0.0157615
-0.0172141
-0.0187436
-0.0201285
-0.0210441
-0.0210893
-0.0198544
-0.0170514
-0.0126761
-0.0072143
-0.00172683
0.00234617
0.00363149
0.000984085
-0.00560953
-0.0140341
-0.0162624
-0.0175898
-0.0186564
-0.019965
-0.021654
-0.0237272
-0.0260719
-0.0284365
-0.0304183
-0.0314726
-0.0309705
-0.0283512
-0.0233153
-0.0161613
-0.00803288
-0.00086541
0.00304502
0.00133005
-0.00671711
-0.0199659
-0.0222197
-0.0235263
-0.0246112
-0.0260773
-0.0281308
-0.0308152
-0.034033
-0.0375144
-0.0407882
-0.0431713
-0.0438099
-0.0417978
-0.0364629
-0.0277327
-0.0166047
-0.00536229
0.00260891
0.00309589
-0.00600572
-0.0268328
-0.0291008
-0.030215
-0.031071
-0.0324534
-0.0346726
-0.0378262
-0.0418385
-0.0464269
-0.0510609
-0.0549312
-0.0569672
-0.0559371
-0.0507247
-0.0407443
-0.0265688
-0.0104959
0.00306858
0.00753634
-0.00141263
-0.0347005
-0.0369544
-0.0375297
-0.0376986
-0.0385735
-0.0406056
-0.0439457
-0.0485284
-0.0540478
-0.0599098
-0.065188
-0.0686189
-0.0686788
-0.0638233
-0.0528988
-0.0358276
-0.0144842
0.00610531
0.0168443
0.0105452
-0.0439417
-0.0460002
-0.0453439
-0.0440697
-0.0438206
-0.0451887
-0.0483386
-0.0531746
-0.0593298
-0.0661197
-0.0724906
-0.0769991
-0.077869
-0.0731759
-0.0612503
-0.0412896
-0.0143719
0.0145668
0.0344729
0.0350404
-0.0557086
-0.0568002
-0.0535197
-0.0496668
-0.0475373
-0.0477315
-0.0503214
-0.0551001
-0.0615743
-0.0689155
-0.0759101
-0.0809209
-0.0819311
-0.0766857
-0.0630726
-0.0396405
-0.0065207
0.0323331
0.0650352
0.0785732
-0.0730701
-0.0705621
-0.0619538
-0.0539872
-0.0491896
-0.0477854
-0.0495612
-0.0540727
-0.0606087
-0.0681387
-0.0752437
-0.0800643
-0.0803274
-0.0734332
-0.0568197
-0.0284459
0.0124435
0.0638221
0.114201
0.15009
-0.104582
-0.0893556
-0.0705813
-0.0566602
-0.0484572
-0.0451971
-0.046105
-0.0503148
-0.0567913
-0.0642511
-0.0710564
-0.0751252
-0.0739195
-0.0644384
-0.0435778
-0.00834067
0.0434515
0.111416
0.189331
0.269764
-0.17673
-0.113407
-0.0744087
-0.0533562
-0.0422417
-0.0378628
-0.0386363
-0.0431286
-0.0499222
-0.0575213
-0.0641607
-0.0676481
-0.0652935
-0.0536648
-0.0292184
0.012556
0.0768124
0.169138
0.296847
0.471132
-0.343575
-0.134793
-0.0552773
-0.0322312
-0.0234164
-0.0211433
-0.0240536
-0.0305105
-0.0388835
-0.0476617
-0.0551491
-0.0592366
-0.0573608
-0.0465202
-0.0220878
0.0212193
0.0923348
0.209265
0.407215
0.736534
)
;

boundaryField
{
    movingWall
    {
        type            zeroGradient;
    }
    fixedWalls
    {
        type            zeroGradient;
    }
    frontAndBack
    {
        type            empty;
    }
}


// ************************************************************************* //
