/*--------------------------------*- C++ -*----------------------------------*\
  =========                 |
  \\      /  F ield         | OpenFOAM: The Open Source CFD Toolbox
   \\    /   O peration     | Website:  https://openfoam.org
    \\  /    A nd           | Version:  9
     \\/     M anipulation  |
\*---------------------------------------------------------------------------*/
FoamFile
{
    format      ascii;
    class       surfaceScalarField;
    location    "0.5";
    object      phi;
}
// * * * * * * * * * * * * * * * * * * * * * * * * * * * * * * * * * * * * * //

dimensions      [ 0 3 -1 0 0 0 0 ];

internalField   nonuniform List<scalar> 
760
(
8.8354e-09
-8.83486e-09
-2.98654e-08
3.87008e-08
-1.14363e-07
8.44978e-08
-2.2839e-07
1.14027e-07
-3.56994e-07
1.28604e-07
-4.88152e-07
1.31159e-07
-6.11606e-07
1.23453e-07
-7.17483e-07
1.05876e-07
-7.95581e-07
7.8098e-08
-8.35764e-07
4.01834e-08
-8.29401e-07
-6.36255e-09
-7.71886e-07
-5.75152e-08
-6.65064e-07
-1.06821e-07
-5.19293e-07
-1.45771e-07
-3.5361e-07
-1.65684e-07
-1.93436e-07
-1.60174e-07
-6.55633e-08
-1.27873e-07
8.96497e-09
-7.45283e-08
2.40355e-08
-1.50707e-08
2.40358e-08
-3.99142e-08
3.10793e-08
-1.83355e-07
1.82142e-07
-4.154e-07
3.16544e-07
-7.06689e-07
4.05316e-07
-1.02732e-06
4.49231e-07
-1.34997e-06
4.53809e-07
-1.64944e-06
4.22929e-07
-1.90142e-06
3.57853e-07
-2.08209e-06
2.58767e-07
-2.16951e-06
1.2761e-07
-2.14699e-06
-2.88849e-08
-2.00678e-06
-1.97724e-07
-1.75549e-06
-3.58111e-07
-1.41652e-06
-4.8474e-07
-1.03011e-06
-5.52098e-07
-6.48549e-07
-5.41733e-07
-3.26326e-07
-4.50097e-07
-1.06495e-07
-2.94359e-07
-6.73621e-09
-1.14829e-07
1.72998e-08
-9.6848e-08
1.27928e-07
-3.51553e-07
4.36847e-07
-7.23396e-07
6.88387e-07
-1.16984e-06
8.51763e-07
-1.65053e-06
9.29918e-07
-2.12827e-06
9.31549e-07
-2.56805e-06
8.62706e-07
-2.93585e-06
7.2566e-07
-3.19878e-06
5.21691e-07
-3.32707e-06
2.55899e-07
-3.29814e-06
-5.78108e-08
-3.10176e-06
-3.94103e-07
-2.7458e-06
-7.14071e-07
-2.26012e-06
-9.70425e-07
-1.69712e-06
-1.11509e-06
-1.12677e-06
-1.11209e-06
-6.24667e-07
-9.522e-07
-2.54643e-07
-6.64383e-07
-5.0026e-08
-3.19445e-07
-3.27261e-08
-1.49232e-07
2.7716e-07
-5.10526e-07
7.98141e-07
-1.0146e-06
1.19246e-06
-1.60352e-06
1.44069e-06
-2.2277e-06
1.55409e-06
-2.84312e-06
1.54697e-06
-3.4086e-06
1.42818e-06
-3.88389e-06
1.20095e-06
-4.22963e-06
8.67434e-07
-4.4095e-06
4.35777e-07
-4.3946e-06
-7.27158e-08
-4.16891e-06
-6.19795e-07
-3.73664e-06
-1.14633e-06
-3.12784e-06
-1.57923e-06
-2.40146e-06
-1.84147e-06
-1.64234e-06
-1.87121e-06
-9.49085e-07
-1.64545e-06
-4.13018e-07
-1.20045e-06
-9.3487e-08
-6.38976e-07
-1.26213e-07
-1.95925e-07
4.73085e-07
-6.55345e-07
1.25756e-06
-1.28194e-06
1.81905e-06
-2.0026e-06
2.16135e-06
-2.75962e-06
2.31112e-06
-3.50438e-06
2.29172e-06
-4.19218e-06
2.11599e-06
-4.77907e-06
1.78783e-06
-5.22084e-06
1.3092e-06
-5.47462e-06
6.89564e-07
-5.50333e-06
-4.4007e-08
-5.28064e-06
-8.42486e-07
-4.80103e-06
-1.62594e-06
-4.08767e-06
-2.29259e-06
-3.20041e-06
-2.72872e-06
-2.23743e-06
-2.83419e-06
-1.32518e-06
-2.55771e-06
-5.93325e-07
-1.9323e-06
-1.39728e-07
-1.09257e-06
-2.65942e-07
-2.36846e-07
7.0993e-07
-7.83771e-07
1.80449e-06
-1.52083e-06
2.55612e-06
-2.3615e-06
3.00202e-06
-3.24161e-06
3.19123e-06
-4.10997e-06
3.16008e-06
-4.92076e-06
2.92678e-06
-5.62844e-06
2.49551e-06
-6.18539e-06
1.86615e-06
-6.54228e-06
1.04645e-06
-6.65116e-06
6.48734e-08
-6.47202e-06
-1.02163e-06
-5.98214e-06
-2.11582e-06
-5.18947e-06
-3.08525e-06
-4.14671e-06
-3.77148e-06
-2.96123e-06
-4.01968e-06
-1.79115e-06
-3.72778e-06
-8.1806e-07
-2.90539e-06
-1.96495e-07
-1.71414e-06
-4.62436e-07
-2.71343e-07
9.81273e-07
-8.92856e-07
2.426e-06
-1.72508e-06
3.38834e-06
-2.67051e-06
3.94744e-06
-3.6605e-06
4.18123e-06
-4.64341e-06
4.14299e-06
-5.57461e-06
3.85798e-06
-6.40938e-06
3.33028e-06
-7.09864e-06
2.55541e-06
-7.58754e-06
1.53535e-06
-7.81671e-06
2.94042e-07
-7.72914e-06
-1.1092e-06
-7.27877e-06
-2.56619e-06
-6.44856e-06
-3.91546e-06
-5.27209e-06
-4.94795e-06
-3.85562e-06
-5.43615e-06
-2.38732e-06
-5.19609e-06
-1.1141e-06
-4.17862e-06
-2.73323e-07
-2.55491e-06
-7.35759e-07
-2.98204e-07
1.27948e-06
-9.78533e-07
3.10633e-06
-1.88619e-06
4.296e-06
-2.91517e-06
4.97642e-06
-3.99427e-06
5.26033e-06
-5.07346e-06
5.22218e-06
-6.11182e-06
4.89634e-06
-7.06831e-06
4.28677e-06
-7.89544e-06
3.38254e-06
-8.5357e-06
2.17561e-06
-8.92075e-06
6.791e-07
-8.97561e-06
-1.05434e-06
-8.62753e-06
-2.91427e-06
-7.82499e-06
-4.71801e-06
-6.56671e-06
-6.20622e-06
-4.93884e-06
-7.06402e-06
-3.14653e-06
-6.9884e-06
-1.50928e-06
-5.81586e-06
-3.8112e-07
-3.68308e-06
-1.11688e-06
-3.16162e-07
1.59564e-06
-1.03669e-06
3.82685e-06
-1.99503e-06
5.25434e-06
-3.07846e-06
6.05985e-06
-4.21481e-06
6.39668e-06
-5.35758e-06
6.36495e-06
-6.47213e-06
6.01088e-06
-7.52454e-06
5.33918e-06
-8.47335e-06
4.33135e-06
-9.26363e-06
2.96589e-06
-9.82355e-06
1.23903e-06
-1.00647e-05
-8.1314e-07
-9.88871e-06
-3.09031e-06
-9.20334e-06
-5.40338e-06
-7.95582e-06
-7.45374e-06
-6.1844e-06
-8.83544e-06
-4.08119e-06
-9.09162e-06
-2.0286e-06
-7.86845e-06
-5.32468e-07
-5.17921e-06
-1.64935e-06
-3.24912e-07
1.92055e-06
-1.06559e-06
4.56752e-06
-2.04543e-06
6.23417e-06
-3.14563e-06
7.16006e-06
-4.29411e-06
7.54517e-06
-5.44968e-06
7.52052e-06
-6.58658e-06
7.14778e-06
-7.68186e-06
6.43446e-06
-8.70552e-06
5.35501e-06
-9.61261e-06
3.87298e-06
-1.03369e-05
1.96333e-06
-1.07865e-05
-3.63585e-07
-1.08453e-05
-3.03147e-06
-1.03819e-05
-5.86682e-06
-9.27962e-06
-8.55599e-06
-7.49716e-06
-1.06179e-05
-5.16472e-06
-1.14241e-05
-2.68741e-06
-1.03458e-05
-7.4207e-07
-7.12455e-06
-2.39142e-06
-3.26657e-07
2.24721e-06
-1.06951e-06
5.31038e-06
-2.03965e-06
7.20432e-06
-3.11124e-06
8.23164e-06
-4.2133e-06
8.64723e-06
-5.31195e-06
8.61917e-06
-6.39307e-06
8.22889e-06
-7.4485e-06
7.4899e-06
-8.46544e-06
6.37195e-06
-9.41724e-06
4.82478e-06
-1.02548e-05
2.80093e-06
-1.0897e-05
2.78581e-07
-1.12261e-05
-2.70237e-06
-1.10832e-05
-6.00969e-06
-1.0288e-05
-9.35124e-06
-8.69371e-06
-1.22122e-05
-6.30813e-06
-1.38096e-05
-3.47869e-06
-1.31752e-05
-1.02638e-06
-9.57686e-06
-3.4178e-06
-3.2833e-07
2.57554e-06
-1.06351e-06
6.04555e-06
-1.99481e-06
8.13562e-06
-2.98705e-06
9.22388e-06
-3.97254e-06
9.63272e-06
-4.92805e-06
9.57468e-06
-5.85434e-06
9.15518e-06
-6.76167e-06
8.39723e-06
-7.65923e-06
7.26951e-06
-8.54602e-06
5.71157e-06
-9.40095e-06
3.65585e-06
-1.01714e-05
1.04908e-06
-1.07565e-05
-2.11732e-06
-1.09958e-05
-5.77036e-06
-1.0663e-05
-9.68409e-06
-9.50048e-06
-1.33747e-05
-7.33878e-06
-1.59713e-05
-4.35273e-06
-1.61612e-05
-1.40057e-06
-1.2529e-05
-4.81837e-06
-3.45027e-07
2.92056e-06
-1.07936e-06
6.77989e-06
-1.94921e-06
9.00547e-06
-2.80806e-06
1.00827e-05
-3.5977e-06
1.04224e-05
-4.31194e-06
1.02889e-05
-4.97104e-06
9.81427e-06
-5.60683e-06
9.03302e-06
-6.25342e-06
7.9161e-06
-6.93958e-06
6.39773e-06
-7.67984e-06
4.39611e-06
-8.46204e-06
1.83127e-06
-9.22617e-06
-1.35319e-06
-9.84129e-06
-5.15524e-06
-1.00736e-05
-9.45178e-06
-9.58151e-06
-1.38667e-05
-7.99452e-06
-1.75583e-05
-5.19257e-06
-1.89632e-05
-1.86929e-06
-1.58523e-05
-6.68766e-06
-4.05841e-07
3.32641e-06
-1.17271e-06
7.54675e-06
-1.96596e-06
9.79872e-06
-2.63177e-06
1.07485e-05
-3.13638e-06
1.0927e-05
-3.50251e-06
1.0655e-05
-3.77656e-06
1.00883e-05
-4.01462e-06
9.27108e-06
-4.27607e-06
8.17755e-06
-4.61905e-06
6.7407e-06
-5.09459e-06
4.87166e-06
-5.73661e-06
2.47329e-06
-6.54209e-06
-5.47704e-07
-7.44124e-06
-4.25609e-06
-8.24565e-06
-8.64738e-06
-8.59272e-06
-1.35197e-05
-7.94186e-06
-1.82092e-05
-5.79321e-06
-2.11118e-05
-2.40625e-06
-1.92393e-05
-9.09391e-06
-5.63941e-07
3.89035e-06
-1.42939e-06
8.4122e-06
-2.12592e-06
1.04952e-05
-2.51762e-06
1.11402e-05
-2.62704e-06
1.10364e-05
-2.52487e-06
1.05529e-05
-2.2923e-06
9.85575e-06
-2.01156e-06
8.99034e-06
-1.76491e-06
7.9309e-06
-1.6348e-06
6.6106e-06
-1.70297e-06
4.93982e-06
-2.04532e-06
2.81565e-06
-2.71991e-06
1.26884e-07
-3.73753e-06
-3.23847e-06
-5.00752e-06
-7.37739e-06
-6.23594e-06
-1.22913e-05
-6.80981e-06
-1.76353e-05
-5.84977e-06
-2.20719e-05
-2.91879e-06
-2.21703e-05
-1.20127e-05
-9.10121e-07
4.80047e-06
-1.95609e-06
9.45817e-06
-2.47885e-06
1.1018e-05
-2.44611e-06
1.11075e-05
-1.99582e-06
1.05861e-05
-1.27227e-06
9.82934e-06
-3.99507e-07
8.98298e-06
5.15321e-07
8.07551e-06
1.37357e-06
7.07265e-06
2.07729e-06
5.90689e-06
2.52498e-06
4.49212e-06
2.61024e-06
2.73039e-06
2.22465e-06
5.12474e-07
1.27689e-06
-2.2907e-06
-2.67741e-07
-5.83277e-06
-2.27296e-06
-1.0286e-05
-4.21571e-06
-1.56926e-05
-4.94964e-06
-2.1338e-05
-3.20367e-06
-2.39162e-05
-1.52164e-05
-1.57148e-06
6.37195e-06
-2.77657e-06
1.06633e-05
-2.83616e-06
1.10776e-05
-2.04904e-06
1.03204e-05
-7.59357e-07
9.29641e-06
7.95907e-07
8.27407e-06
2.45532e-06
7.32357e-06
4.0996e-06
6.43123e-06
5.62833e-06
5.54392e-06
6.94394e-06
4.59127e-06
7.94089e-06
3.49517e-06
8.49918e-06
2.1721e-06
8.47937e-06
5.32281e-07
7.73046e-06
-1.54179e-06
6.10185e-06
-4.20415e-06
3.53034e-06
-7.71452e-06
2.97089e-07
-1.24593e-05
-2.55046e-06
-1.84904e-05
-2.92033e-06
-2.35463e-05
-1.81367e-05
-2.60228e-06
8.97424e-06
-3.29541e-06
1.13564e-05
-2.02684e-06
9.80903e-06
1.6059e-07
8.13296e-06
2.67978e-06
6.77722e-06
5.26104e-06
5.69282e-06
7.76608e-06
4.81854e-06
1.01089e-05
4.08845e-06
1.2221e-05
3.43182e-06
1.40309e-05
2.78137e-06
1.54508e-05
2.07528e-06
1.63676e-05
1.25521e-06
1.66354e-05
2.6453e-07
1.60803e-05
-9.8665e-07
1.44703e-05
-2.59419e-06
1.15513e-05
-4.79557e-06
7.20356e-06
-8.11153e-06
2.12691e-06
-1.34138e-05
-1.25992e-06
-2.01595e-05
-1.93966e-05
-2.61543e-06
1.15897e-05
-6.25029e-08
8.80345e-06
4.19711e-06
5.54942e-06
8.33198e-06
3.99809e-06
1.20663e-05
3.04287e-06
1.53957e-05
2.36345e-06
1.83405e-05
1.87368e-06
2.09209e-05
1.50814e-06
2.31428e-05
1.20983e-06
2.49884e-05
9.35784e-07
2.641e-05
6.5368e-07
2.73259e-05
3.39387e-07
2.76074e-05
-1.70091e-08
2.71172e-05
-4.9645e-07
2.55946e-05
-1.07155e-06
2.26873e-05
-1.88835e-06
1.7881e-05
-3.30515e-06
1.08682e-05
-6.40098e-06
3.1599e-06
-1.24512e-05
-1.62367e-05
1.15897e-05
2.03931e-05
2.59425e-05
2.99406e-05
3.29835e-05
3.5347e-05
3.72206e-05
3.87288e-05
3.99386e-05
4.08744e-05
4.15281e-05
4.18675e-05
4.18505e-05
4.1354e-05
4.02824e-05
3.83941e-05
3.50889e-05
2.8688e-05
1.62367e-05
)
;

boundaryField
{
    movingWall
    {
        type            calculated;
        value           uniform 0;
    }
    fixedWalls
    {
        type            calculated;
        value           uniform 0;
    }
    frontAndBack
    {
        type            empty;
        value           nonuniform 0 ( );
    }
}


// ************************************************************************* //
