/*--------------------------------*- C++ -*----------------------------------*\
  =========                 |
  \\      /  F ield         | OpenFOAM: The Open Source CFD Toolbox
   \\    /   O peration     | Website:  https://openfoam.org
    \\  /    A nd           | Version:  9
     \\/     M anipulation  |
\*---------------------------------------------------------------------------*/
FoamFile
{
    format      ascii;
    class       volVectorField;
    location    "0.5";
    object      U;
}
// * * * * * * * * * * * * * * * * * * * * * * * * * * * * * * * * * * * * * //

dimensions      [ 0 1 -1 0 0 0 0 ];

internalField   nonuniform List<vector> 
400
(
(0.00020114 -0.000202822 0)
(-3.18746e-06 0.00013908 0)
(-0.0012887 0.000508534 0)
(-0.00333786 0.000743809 0)
(-0.00581997 0.000860563 0)
(-0.00846685 0.00089042 0)
(-0.0110586 0.000851349 0)
(-0.0133963 0.000746274 0)
(-0.0152791 0.000569372 0)
(-0.0164994 0.000316119 0)
(-0.0168621 -6.5048e-06 0)
(-0.0162256 -0.000373394 0)
(-0.0145543 -0.000734111 0)
(-0.0119675 -0.00102151 0)
(-0.00876371 -0.00116449 0)
(-0.00540191 -0.00110908 0)
(-0.0024255 -0.000841483 0)
(-0.00033386 -0.000406994 0)
(0.000556015 6.87232e-05 0)
(0.000338054 0.000320687 0)
(-0.000147565 -8.07826e-06 0)
(-0.00175394 0.00168971 0)
(-0.00562023 0.00331259 0)
(-0.011014 0.00438779 0)
(-0.0172715 0.00492844 0)
(-0.02383 0.00501829 0)
(-0.0301707 0.00471303 0)
(-0.0358005 0.00402729 0)
(-0.0402348 0.00295522 0)
(-0.0430054 0.00150774 0)
(-0.0437087 -0.000248516 0)
(-0.0420807 -0.00216376 0)
(-0.0380942 -0.00399608 0)
(-0.0320438 -0.00543931 0)
(-0.0245766 -0.00618322 0)
(-0.0166495 -0.00600308 0)
(-0.00938032 -0.00485655 0)
(-0.00380058 -0.00295671 0)
(-0.000585793 -0.000821168 0)
(0.000187727 0.000588242 0)
(-0.000599117 0.00136825 0)
(-0.00378892 0.00567563 0)
(-0.0102374 0.00937528 0)
(-0.0186652 0.0118219 0)
(-0.0281326 0.0130256 0)
(-0.0378946 0.0131185 0)
(-0.0472411 0.0121965 0)
(-0.0554818 0.0102941 0)
(-0.0619413 0.00742441 0)
(-0.0659782 0.0036537 0)
(-0.0670474 -0.000821723 0)
(-0.0647962 -0.00562223 0)
(-0.0591801 -0.0101777 0)
(-0.0505671 -0.0137854 0)
(-0.0397895 -0.015741 0)
(-0.0281075 -0.0155335 0)
(-0.0170384 -0.0130597 0)
(-0.00804446 -0.00878578 0)
(-0.00222622 -0.00380732 0)
(-0.000109859 4.06208e-05 0)
(-0.0010054 0.00385056 0)
(-0.00569969 0.0118851 0)
(-0.0146236 0.0182118 0)
(-0.0258802 0.0222779 0)
(-0.0382517 0.0241905 0)
(-0.0508601 0.0241634 0)
(-0.0628742 0.0223407 0)
(-0.0734806 0.0187776 0)
(-0.0818763 0.0135114 0)
(-0.0872889 0.00667804 0)
(-0.0890421 -0.00137106 0)
(-0.0866586 -0.00998865 0)
(-0.0799929 -0.0182133 0)
(-0.0693685 -0.0248573 0)
(-0.0556738 -0.0287051 0)
(-0.0403783 -0.0288275 0)
(-0.0253819 -0.0249523 0)
(-0.0126631 -0.0177617 0)
(-0.00393058 -0.00898317 0)
(-0.000376377 -0.00137558 0)
(-0.00135818 0.00732324 0)
(-0.00742102 0.0201375 0)
(-0.0186399 0.0295743 0)
(-0.0325163 0.0354327 0)
(-0.0475686 0.0380564 0)
(-0.0628203 0.0378034 0)
(-0.0773713 0.0348843 0)
(-0.0903398 0.0293724 0)
(-0.10084 0.0213159 0)
(-0.107988 0.0109018 0)
(-0.110959 -0.00138158 0)
(-0.109087 -0.0146239 0)
(-0.102017 -0.02746 0)
(-0.0898878 -0.0381485 0)
(-0.0735073 -0.0448242 0)
(-0.0544692 -0.045937 0)
(-0.0350814 -0.0408277 0)
(-0.0180012 -0.0302524 0)
(-0.00581262 -0.0165834 0)
(-0.000627691 -0.00366675 0)
(-0.00166184 0.0116749 0)
(-0.00893468 0.0302529 0)
(-0.0222133 0.0432729 0)
(-0.0384624 0.0511064 0)
(-0.0559711 0.0544773 0)
(-0.0737 0.0539633 0)
(-0.0907254 0.0498677 0)
(-0.106146 0.0422745 0)
(-0.119031 0.0312129 0)
(-0.128402 0.0168721 0)
(-0.133264 -0.000181943 0)
(-0.132701 -0.0188301 0)
(-0.126037 -0.0373245 0)
(-0.113066 -0.0533182 0)
(-0.0943378 -0.0641313 0)
(-0.0714312 -0.0673013 0)
(-0.0470402 -0.06142 0)
(-0.0246727 -0.0470318 0)
(-0.00815442 -0.0271274 0)
(-0.000926384 -0.00695513 0)
(-0.00191409 0.0167849 0)
(-0.0102112 0.042001 0)
(-0.0252549 0.0590452 0)
(-0.0435588 0.069049 0)
(-0.0632294 0.0732517 0)
(-0.0832018 0.0725304 0)
(-0.102574 0.0673116 0)
(-0.120472 0.0576809 0)
(-0.135971 0.0436043 0)
(-0.148027 0.0252008 0)
(-0.155478 0.00301703 0)
(-0.157127 -0.021729 0)
(-0.151882 -0.0469737 0)
(-0.139032 -0.0697601 0)
(-0.118644 -0.0864395 0)
(-0.0920391 -0.0932799 0)
(-0.0621387 -0.0875876 0)
(-0.0333894 -0.0691702 0)
(-0.0113127 -0.0414634 0)
(-0.00135247 -0.0115404 0)
(-0.00210654 0.0225133 0)
(-0.0112057 0.0550958 0)
(-0.0276467 0.0765439 0)
(-0.0475831 0.0889037 0)
(-0.0689857 0.0940542 0)
(-0.0908002 0.0932529 0)
(-0.112191 0.0870861 0)
(-0.132369 0.0756341 0)
(-0.150469 0.0587532 0)
(-0.165449 0.0364045 0)
(-0.176037 0.00899053 0)
(-0.180768 -0.0223209 0)
(-0.178105 -0.0552965 0)
(-0.166705 -0.0864521 0)
(-0.145905 -0.111095 0)
(-0.116402 -0.123868 0)
(-0.0809644 -0.120093 0)
(-0.0448396 -0.0979542 0)
(-0.0156967 -0.0607971 0)
(-0.00200573 -0.0179299 0)
(-0.00223023 0.028693 0)
(-0.0118737 0.0691913 0)
(-0.0292684 0.0953251 0)
(-0.0502877 0.110174 0)
(-0.0728042 0.116371 0)
(-0.0958044 0.115641 0)
(-0.118563 0.108776 0)
(-0.140435 0.0958563 0)
(-0.160698 0.0765929 0)
(-0.178403 0.050706 0)
(-0.192283 0.0183202 0)
(-0.200713 -0.0196273 0)
(-0.201771 -0.0609589 0)
(-0.193452 -0.101877 0)
(-0.174149 -0.136734 0)
(-0.143487 -0.158326 0)
(-0.103446 -0.159222 0)
(-0.0595267 -0.134657 0)
(-0.0217626 -0.086657 0)
(-0.00302092 -0.0268698 0)
(-0.0022859 0.0351369 0)
(-0.012206 0.0838919 0)
(-0.0300587 0.114844 0)
(-0.0514845 0.132192 0)
(-0.0742795 0.13944 0)
(-0.0974962 0.138873 0)
(-0.120562 0.131552 0)
(-0.143039 0.117587 0)
(-0.164437 0.096531 0)
(-0.184033 0.0678091 0)
(-0.200726 0.0311543 0)
(-0.21293 -0.0129203 0)
(-0.218532 -0.0625784 0)
(-0.214979 -0.114065 0)
(-0.199637 -0.16112 0)
(-0.170654 -0.19477 0)
(-0.128381 -0.204224 0)
(-0.0774981 -0.180086 0)
(-0.0299902 -0.120755 0)
(-0.00459308 -0.0393853 0)
(-0.00229984 0.041671 0)
(-0.0122803 0.0987995 0)
(-0.0301057 0.134485 0)
(-0.0511682 0.154122 0)
(-0.0731948 0.162223 0)
(-0.0953342 0.161747 0)
(-0.117213 0.154103 0)
(-0.138665 0.139482 0)
(-0.159525 0.11731 0)
(-0.179431 0.0867076 0)
(-0.19765 0.0469536 0)
(-0.212893 -0.00202388 0)
(-0.223174 -0.0590424 0)
(-0.225685 -0.120855 0)
(-0.216933 -0.18121 0)
(-0.193384 -0.229904 0)
(-0.15294 -0.25269 0)
(-0.0979191 -0.233877 0)
(-0.0407899 -0.164663 0)
(-0.00700601 -0.0568295 0)
(-0.00234826 0.0482037 0)
(-0.0123334 0.113607 0)
(-0.0297601 0.153623 0)
(-0.0496582 0.174993 0)
(-0.069695 0.183428 0)
(-0.0891787 0.182698 0)
(-0.108003 0.174648 0)
(-0.126337 0.159625 0)
(-0.144421 0.136988 0)
(-0.162372 0.105607 0)
(-0.18 0.0643097 0)
(-0.196602 0.0123611 0)
(-0.210676 -0.0499472 0)
(-0.219631 -0.120394 0)
(-0.219582 -0.193572 0)
(-0.205519 -0.259121 0)
(-0.172403 -0.300095 0)
(-0.118548 -0.293591 0)
(-0.0542604 -0.219191 0)
(-0.0106422 -0.0809049 0)
(-0.00259882 0.0548517 0)
(-0.0128625 0.128247 0)
(-0.0297613 0.171724 0)
(-0.0477209 0.193753 0)
(-0.0644083 0.201558 0)
(-0.0794381 0.19987 0)
(-0.0930853 0.191052 0)
(-0.10593 0.175667 0)
(-0.118671 0.153091 0)
(-0.131967 0.122031 0)
(-0.146282 0.0809541 0)
(-0.161679 0.0284974 0)
(-0.177499 -0.0360278 0)
(-0.191915 -0.111832 0)
(-0.20138 -0.195219 0)
(-0.200135 -0.277169 0)
(-0.180398 -0.339866 0)
(-0.135332 -0.353902 0)
(-0.0697156 -0.283333 0)
(-0.0159191 -0.113555 0)
(-0.00338812 0.062158 0)
(-0.0147753 0.143087 0)
(-0.0313539 0.188417 0)
(-0.0465975 0.209292 0)
(-0.0583924 0.214952 0)
(-0.066968 0.211224 0)
(-0.0731712 0.200998 0)
(-0.0780791 0.185074 0)
(-0.0828729 0.162898 0)
(-0.0887441 0.133119 0)
(-0.0968022 0.0939855 0)
(-0.107929 0.0436655 0)
(-0.122498 -0.0194104 0)
(-0.139907 -0.0959821 0)
(-0.157793 -0.184687 0)
(-0.170867 -0.279428 0)
(-0.169735 -0.364309 0)
(-0.142376 -0.406399 0)
(-0.0849654 -0.352907 0)
(-0.0230395 -0.156513 0)
(-0.0053628 0.0714727 0)
(-0.019601 0.159135 0)
(-0.0362996 0.203447 0)
(-0.0477264 0.220327 0)
(-0.0526112 0.221716 0)
(-0.0523667 0.214546 0)
(-0.0486856 0.202107 0)
(-0.0432314 0.185345 0)
(-0.0376528 0.163764 0)
(-0.0335921 0.136022 0)
(-0.0326866 0.100297 0)
(-0.0365219 0.0545246 0)
(-0.046476 -0.00343765 0)
(-0.0633553 -0.0755682 0)
(-0.0866493 -0.162911 0)
(-0.112982 -0.26343 0)
(-0.133416 -0.36633 0)
(-0.132271 -0.440497 0)
(-0.0954826 -0.419536 0)
(-0.0313734 -0.210467 0)
(-0.00967725 0.0856611 0)
(-0.0296255 0.178106 0)
(-0.046328 0.216298 0)
(-0.0514187 0.224968 0)
(-0.046054 0.219404 0)
(-0.0337325 0.207286 0)
(-0.0172843 0.191912 0)
(0.00100607 0.174121 0)
(0.0191092 0.15336 0)
(0.0350913 0.1283 0)
(0.0469937 0.0971648 0)
(0.0527635 0.0578969 0)
(0.0502572 0.00819479 0)
(0.0374282 -0.0545494 0)
(0.012756 -0.133156 0)
(-0.0233866 -0.229746 0)
(-0.0651398 -0.341193 0)
(-0.0964221 -0.445141 0)
(-0.0938052 -0.470807 0)
(-0.0383177 -0.274476 0)
(-0.0179991 0.110543 0)
(-0.0470413 0.201507 0)
(-0.0599929 0.224378 0)
(-0.0519046 0.219097 0)
(-0.0299191 0.203835 0)
(-0.000585929 0.185787 0)
(0.0321512 0.167432 0)
(0.0656244 0.149035 0)
(0.0977232 0.129767 0)
(0.126531 0.108262 0)
(0.150072 0.0828707 0)
(0.166149 0.0517494 0)
(0.1722 0.0128243 0)
(0.165378 -0.0364498 0)
(0.142566 -0.0994835 0)
(0.101034 -0.181308 0)
(0.0414215 -0.287107 0)
(-0.0247955 -0.409865 0)
(-0.069517 -0.490421 0)
(-0.0377029 -0.344106 0)
(-0.0307501 0.156949 0)
(-0.0677097 0.225157 0)
(-0.0590999 0.215625 0)
(-0.0214424 0.191028 0)
(0.0274221 0.166091 0)
(0.0792904 0.143863 0)
(0.130616 0.124687 0)
(0.179387 0.107776 0)
(0.224172 0.0918638 0)
(0.263649 0.0755559 0)
(0.296289 0.0574413 0)
(0.320159 0.0360869 0)
(0.332675 0.00995554 0)
(0.330802 -0.0228586 0)
(0.310536 -0.0651081 0)
(0.266913 -0.122299 0)
(0.195376 -0.205294 0)
(0.0965973 -0.326051 0)
(-0.00714958 -0.455429 0)
(-0.0158305 -0.397766 0)
(-0.0279987 0.227272 0)
(-0.041766 0.224209 0)
(0.0372742 0.165765 0)
(0.125776 0.127084 0)
(0.205515 0.100631 0)
(0.276154 0.0809952 0)
(0.338784 0.06614 0)
(0.393958 0.0545221 0)
(0.441947 0.0447152 0)
(0.482668 0.0355198 0)
(0.515502 0.0259382 0)
(0.53922 0.0150998 0)
(0.55167 0.00216858 0)
(0.550412 -0.0135278 0)
(0.53146 -0.0337325 0)
(0.489109 -0.0617713 0)
(0.414907 -0.107105 0)
(0.295798 -0.193817 0)
(0.132073 -0.332993 0)
(0.0671197 -0.369362 0)
(0.261732 0.137656 0)
(0.324721 0.118464 0)
(0.456095 0.077556 0)
(0.560898 0.0519546 0)
(0.632894 0.0363328 0)
(0.685769 0.0260605 0)
(0.727294 0.0191225 0)
(0.760719 0.014329 0)
(0.78768 0.0108003 0)
(0.809019 0.00790025 0)
(0.824904 0.00517243 0)
(0.834938 0.00228702 0)
(0.83826 -0.00105837 0)
(0.833445 -0.00480758 0)
(0.818075 -0.00959182 0)
(0.788766 -0.0162697 0)
(0.738046 -0.0273248 0)
(0.648125 -0.0517941 0)
(0.474751 -0.111402 0)
(0.341584 -0.155808 0)
)
;

boundaryField
{
    movingWall
    {
        type            fixedValue;
        value           uniform ( 1 0 0 );
    }
    fixedWalls
    {
        type            noSlip;
    }
    frontAndBack
    {
        type            empty;
    }
}


// ************************************************************************* //
