/*--------------------------------*- C++ -*----------------------------------*\
  =========                 |
  \\      /  F ield         | OpenFOAM: The Open Source CFD Toolbox
   \\    /   O peration     | Website:  https://openfoam.org
    \\  /    A nd           | Version:  7
     \\/     M anipulation  |
\*---------------------------------------------------------------------------*/
FoamFile
{
    version     2.0;
    format      ascii;
    class       volScalarField;
    location    "0.1";
    object      p;
}
// * * * * * * * * * * * * * * * * * * * * * * * * * * * * * * * * * * * * * //

dimensions      [0 2 -2 0 0 0 0];

internalField   nonuniform List<scalar> 
400
(
-1.71729e-08
-0.000393303
-0.000647689
-0.000649529
-0.000358147
0.000223425
0.00107179
0.00215447
0.00343261
0.00485949
0.00637845
0.0079217
0.00941071
0.0107588
0.0118765
0.0126822
0.0131179
0.0131745
0.0129153
0.0124888
0.000366237
-3.58203e-05
-0.000220901
-0.000163718
0.000136151
0.000682163
0.00146301
0.00245563
0.00362805
0.00493868
0.00633534
0.00775519
0.00912548
0.0103672
0.0114012
0.0121578
0.0125934
0.0127047
0.0125129
0.0120775
0.00060501
9.91025e-05
-9.98401e-05
-3.16423e-05
0.000265976
0.000793492
0.00154335
0.00249711
0.00362749
0.00489706
0.00625691
0.00764641
0.00899435
0.0102221
0.0112498
0.0120064
0.0124467
0.0125619
0.012338
0.0117802
0.000598898
-3.29622e-05
-0.0002796
-0.000222791
6.99183e-05
0.000593737
0.00134157
0.0022974
0.00343736
0.00472723
0.0061202
0.00755597
0.00896098
0.0102514
0.0113387
0.0121412
0.0126029
0.0127049
0.0124091
0.011696
0.000278119
-0.000470618
-0.00076843
-0.000725668
-0.000432362
0.000102552
0.00087232
0.00186311
0.00305428
0.0044146
0.00589879
0.00744567
0.00897672
0.0103985
0.0116082
0.0125056
0.0130176
0.0131127
0.0127365
0.0118632
-0.000403793
-0.00126766
-0.00161686
-0.00158491
-0.00128135
-0.000718457
9.77721e-05
0.00115609
0.00243959
0.00392053
0.00555532
0.00728216
0.00901512
0.0106475
0.0120554
0.0131117
0.0137169
0.0138214
0.0133551
0.0122954
-0.00148631
-0.00247683
-0.00288
-0.00285386
-0.00252917
-0.00192165
-0.00103609
0.0001198
0.00153417
0.00318431
0.00502939
0.00701015
0.00903087
0.010969
0.0126726
0.0139759
0.0147387
0.0148806
0.0143067
0.0130006
-0.0030177
-0.00415834
-0.00462106
-0.00459555
-0.00423961
-0.00357361
-0.00260053
-0.00132308
0.000254197
0.00211708
0.00423342
0.00653994
0.0089435
0.0113026
0.0134296
0.015105
0.0161256
0.0163558
0.0156507
0.0139948
-0.00506447
-0.00638983
-0.00692037
-0.00689027
-0.00649463
-0.00576071
-0.00468917
-0.0032758
-0.00151488
0.000591645
0.0030239
0.00573075
0.00861968
0.0115366
0.0142548
0.0164834
0.0179232
0.0183393
0.0174826
0.0153138
-0.0077182
-0.00927434
-0.0098816
-0.00983948
-0.00939638
-0.00858999
-0.00741809
-0.00586746
-0.00391879
-0.00155676
0.00121907
0.00437985
0.0078495
0.0114754
0.0149982
0.0180409
0.0201642
0.0209592
0.0199619
0.0170379
-0.0111054
-0.0129505
-0.0136386
-0.0135686
-0.0130669
-0.0121865
-0.0109214
-0.00924745
-0.00712924
-0.0045298
-0.00141994
0.00220832
0.00632008
0.0107957
0.0153725
0.0195917
0.0228274
0.0243786
0.0233542
0.0193482
-0.0154064
-0.0176088
-0.018364
-0.0182286
-0.0176446
-0.0166851
-0.0153386
-0.0135686
-0.0113233
-0.00854301
-0.00516444
-0.00112714
0.00360714
0.00900655
0.0148762
0.0207329
0.0257484
0.0287663
0.0280884
0.0226571
-0.0208937
-0.0235196
-0.02428
-0.0239933
-0.0232719
-0.0222105
-0.0207859
-0.0189487
-0.0166341
-0.0137658
-0.0102492
-0.0059638
-0.000767435
0.00547005
0.0127499
0.0207284
0.0284751
0.0342121
0.0348234
0.0278947
-0.0280147
-0.0310804
-0.031667
-0.0310429
-0.0300642
-0.0288327
-0.0272981
-0.0253961
-0.0230571
-0.0202025
-0.0167241
-0.0124522
-0.00712563
-0.000390692
0.00812705
0.0185351
0.0301541
0.0405884
0.0445177
0.0370665
-0.0375735
-0.0408941
-0.0408477
-0.039503
-0.0380268
-0.036468
-0.0347143
-0.0326796
-0.0302991
-0.0275116
-0.0242236
-0.0202471
-0.0152164
-0.0085558
0.000645139
0.0133463
0.0298044
0.0475205
0.0584734
0.0539715
-0.0511289
-0.0538765
-0.0520806
-0.0492705
-0.0468596
-0.0446759
-0.0424766
-0.0401364
-0.0375951
-0.0348192
-0.0317478
-0.0282081
-0.0237852
-0.01766
-0.0084126
0.00605742
0.0277308
0.0552463
0.0786745
0.0845144
-0.0719045
-0.0713352
-0.0652936
-0.059694
-0.0556245
-0.0523463
-0.0493743
-0.0464951
-0.0436199
-0.0407135
-0.0377203
-0.0344628
-0.030477
-0.02472
-0.0152946
0.000989303
0.0281836
0.0675344
0.110067
0.138247
-0.107733
-0.0944961
-0.0792989
-0.0688932
-0.0621566
-0.0572876
-0.053356
-0.0499077
-0.0467143
-0.0436572
-0.0406114
-0.0373065
-0.0331241
-0.0267353
-0.015645
0.00434165
0.0392006
0.0937889
0.165083
0.239038
-0.182795
-0.121225
-0.0865311
-0.0698217
-0.0607012
-0.0549739
-0.051014
-0.0479085
-0.0451473
-0.0424747
-0.0396751
-0.0363574
-0.0316982
-0.0239354
-0.0099917
0.0156579
0.0616469
0.138864
0.258518
0.431252
-0.349275
-0.142555
-0.0677272
-0.049666
-0.0435555
-0.0405962
-0.0393803
-0.0387874
-0.038081
-0.0369716
-0.0352785
-0.0326228
-0.0281665
-0.0202462
-0.00526805
0.0231974
0.0771251
0.179428
0.369372
0.696667
)
;

boundaryField
{
    movingWall
    {
        type            zeroGradient;
    }
    fixedWalls
    {
        type            zeroGradient;
    }
    frontAndBack
    {
        type            empty;
    }
}


// ************************************************************************* //
