/*--------------------------------*- C++ -*----------------------------------*\
  =========                 |
  \\      /  F ield         | OpenFOAM: The Open Source CFD Toolbox
   \\    /   O peration     | Website:  https://openfoam.org
    \\  /    A nd           | Version:  7
     \\/     M anipulation  |
\*---------------------------------------------------------------------------*/
FoamFile
{
    version     2.0;
    format      ascii;
    class       surfaceScalarField;
    location    "0.1";
    object      phi;
}
// * * * * * * * * * * * * * * * * * * * * * * * * * * * * * * * * * * * * * //

dimensions      [0 3 -1 0 0 0 0];

internalField   nonuniform List<scalar> 
760
(
-4.46776e-09
4.46855e-09
-4.72337e-08
4.27658e-08
-1.18232e-07
7.09975e-08
-2.01127e-07
8.28952e-08
-2.84695e-07
8.35679e-08
-3.62001e-07
7.73062e-08
-4.28696e-07
6.66945e-08
-4.81753e-07
5.30565e-08
-5.1874e-07
3.69868e-08
-5.37537e-07
1.87965e-08
-5.36343e-07
-1.19439e-09
-5.13878e-07
-2.24642e-08
-4.69742e-07
-4.41362e-08
-4.04931e-07
-6.48106e-08
-3.22565e-07
-8.23658e-08
-2.28808e-07
-9.37575e-08
-1.33862e-07
-9.49457e-08
-5.27877e-08
-8.10746e-08
-4.72438e-09
-4.80631e-08
-4.72441e-09
-4.33562e-08
4.78247e-08
-1.62016e-07
1.61425e-07
-3.29192e-07
2.38172e-07
-5.18039e-07
2.71742e-07
-7.07261e-07
2.7279e-07
-8.81983e-07
2.52028e-07
-1.03207e-06
2.16781e-07
-1.15028e-06
1.71268e-07
-1.23103e-06
1.17736e-07
-1.26982e-06
5.75821e-08
-1.26318e-06
-7.82693e-09
-1.20904e-06
-7.66109e-08
-1.10736e-06
-1.45819e-07
-9.61162e-07
-2.11005e-07
-7.77857e-07
-2.65671e-07
-5.7075e-07
-3.00864e-07
-3.60391e-07
-3.05305e-07
-1.74646e-07
-2.6682e-07
-4.53375e-08
-1.77372e-07
-5.00621e-08
-7.59337e-08
1.23758e-07
-2.53498e-07
3.38989e-07
-4.90694e-07
4.75369e-07
-7.525e-07
5.33548e-07
-1.01212e-06
5.32408e-07
-1.25055e-06
4.90455e-07
-1.45453e-06
4.20763e-07
-1.61446e-06
3.31202e-07
-1.72297e-06
2.26241e-07
-1.77419e-06
1.08807e-07
-1.76373e-06
-1.82911e-08
-1.68901e-06
-1.51333e-07
-1.55014e-06
-2.84687e-07
-1.35119e-06
-4.09954e-07
-1.10185e-06
-5.1501e-07
-8.19322e-07
-5.83392e-07
-5.29865e-07
-5.94763e-07
-2.68884e-07
-5.27802e-07
-7.80441e-08
-3.68211e-07
-1.28106e-07
-9.80654e-08
2.21823e-07
-3.20609e-07
5.61533e-07
-6.11717e-07
7.66477e-07
-9.2857e-07
8.50401e-07
-1.24014e-06
8.43978e-07
-1.52496e-06
7.75271e-07
-1.76816e-06
6.63967e-07
-1.95896e-06
5.22004e-07
-2.08899e-06
3.56268e-07
-2.15147e-06
1.71289e-07
-2.1411e-06
-2.86605e-08
-2.05446e-06
-2.37974e-07
-1.89102e-06
-4.48125e-07
-1.65472e-06
-6.46252e-07
-1.35611e-06
-8.13622e-07
-1.0148e-06
-9.24698e-07
-6.61625e-07
-9.47941e-07
-3.39204e-07
-8.50223e-07
-9.96984e-08
-6.07717e-07
-2.27804e-07
-1.14815e-07
3.36638e-07
-3.74748e-07
8.21466e-07
-7.12032e-07
1.10376e-06
-1.07629e-06
1.21466e-06
-1.43254e-06
1.20022e-06
-1.75741e-06
1.10015e-06
-2.03516e-06
9.4171e-07
-2.25439e-06
7.41239e-07
-2.40613e-06
5.08008e-07
-2.48276e-06
2.47919e-07
-2.4778e-06
-3.36257e-08
-2.38627e-06
-3.29501e-07
-2.20599e-06
-6.28402e-07
-1.93954e-06
-9.12707e-07
-1.59717e-06
-1.15599e-06
-1.20033e-06
-1.32154e-06
-7.84873e-07
-1.3634e-06
-4.02317e-07
-1.23278e-06
-1.17282e-07
-8.92752e-07
-3.45087e-07
-1.3064e-07
4.67279e-07
-4.27055e-07
1.11788e-06
-8.10191e-07
1.4869e-06
-1.22193e-06
1.6264e-06
-1.62323e-06
1.60152e-06
-1.98904e-06
1.46596e-06
-2.30303e-06
1.25571e-06
-2.55364e-06
9.91844e-07
-2.73148e-06
6.85846e-07
-2.82803e-06
3.44477e-07
-2.83525e-06
-2.64054e-08
-2.74571e-06
-4.19042e-07
-2.55429e-06
-8.19825e-07
-2.26063e-06
-1.20637e-06
-1.87328e-06
-1.54335e-06
-1.41494e-06
-1.77987e-06
-9.27522e-07
-1.85082e-06
-4.74407e-07
-1.68589e-06
-1.36652e-07
-1.23051e-06
-4.81738e-07
-1.48627e-07
6.15906e-07
-4.85987e-07
1.45524e-06
-9.20375e-07
1.92129e-06
-1.38506e-06
2.09108e-06
-1.83661e-06
2.05308e-06
-2.24842e-06
1.87777e-06
-2.60402e-06
1.61131e-06
-2.89205e-06
1.27987e-06
-3.10306e-06
8.96858e-07
-3.22767e-06
4.69087e-07
-3.25597e-06
1.89129e-09
-3.17697e-06
-4.98045e-07
-2.98107e-06
-1.01572e-06
-2.66273e-06
-1.52471e-06
-2.22646e-06
-1.97961e-06
-1.69474e-06
-2.31159e-06
-1.11632e-06
-2.42924e-06
-5.7073e-07
-2.23148e-06
-1.6264e-07
-1.6386e-06
-6.44378e-07
-1.70976e-07
7.86882e-07
-5.57819e-07
1.84208e-06
-1.05299e-06
2.41646e-06
-1.5795e-06
2.61759e-06
-2.08911e-06
2.56268e-06
-2.55395e-06
2.34261e-06
-2.95805e-06
2.0154e-06
-3.29099e-06
1.61282e-06
-3.54391e-06
1.14977e-06
-3.70695e-06
6.32132e-07
-3.76788e-06
6.2824e-08
-3.71184e-06
-5.54093e-07
-3.52238e-06
-1.20518e-06
-3.18567e-06
-1.86142e-06
-2.69812e-06
-2.46716e-06
-2.0785e-06
-2.93122e-06
-1.38186e-06
-3.12588e-06
-7.0918e-07
-2.90416e-06
-2.00709e-07
-2.14707e-06
-8.45087e-07
-1.99608e-07
9.86489e-07
-6.47923e-07
2.2904e-06
-1.2165e-06
2.98504e-06
-1.81566e-06
3.21675e-06
-2.39195e-06
3.13897e-06
-2.91691e-06
2.86757e-06
-3.37612e-06
2.47461e-06
-3.76132e-06
1.99802e-06
-4.06533e-06
1.45379e-06
-4.2788e-06
8.45597e-07
-4.38772e-06
1.71747e-07
-4.37258e-06
-5.69237e-07
-4.20815e-06
-1.3696e-06
-3.86798e-06
-2.2016e-06
-3.33397e-06
-3.00116e-06
-2.61398e-06
-3.65121e-06
-1.76535e-06
-3.97451e-06
-9.15676e-07
-3.75383e-06
-2.59229e-07
-2.80351e-06
-1.10432e-06
-2.36846e-07
1.22334e-06
-7.62261e-07
2.81581e-06
-1.41939e-06
3.64217e-06
-2.10268e-06
3.90004e-06
-2.75329e-06
3.78959e-06
-3.34341e-06
3.45769e-06
-3.86186e-06
2.99306e-06
-4.30431e-06
2.44047e-06
-4.66714e-06
1.81662e-06
-4.9432e-06
1.12165e-06
-5.11827e-06
3.4682e-07
-5.16841e-06
-5.19095e-07
-5.05819e-06
-1.47983e-06
-4.7436e-06
-2.51619e-06
-4.18289e-06
-3.56187e-06
-3.36029e-06
-4.47381e-06
-2.32434e-06
-5.01046e-06
-1.23052e-06
-4.84765e-06
-3.52729e-07
-3.6813e-06
-1.45704e-06
-2.86247e-07
1.50958e-06
-9.0895e-07
3.43852e-06
-1.67181e-06
4.40502e-06
-2.44957e-06
4.6778e-06
-3.17859e-06
4.51861e-06
-3.83382e-06
4.11292e-06
-4.40975e-06
3.56898e-06
-4.90843e-06
2.93915e-06
-5.33236e-06
2.24055e-06
-5.67939e-06
1.46868e-06
-5.93789e-06
6.05322e-07
-6.08178e-06
-3.75211e-07
-6.06567e-06
-1.49593e-06
-5.82422e-06
-2.75764e-06
-5.28105e-06
-4.10504e-06
-4.37771e-06
-5.37716e-06
-3.13091e-06
-6.25726e-06
-1.71322e-06
-6.26534e-06
-5.0626e-07
-4.88826e-06
-1.9633e-06
-3.53802e-07
1.86339e-06
-1.10001e-06
4.18473e-06
-1.98655e-06
5.29156e-06
-2.86464e-06
5.55589e-06
-3.66805e-06
5.32203e-06
-4.37803e-06
4.8229e-06
-4.99802e-06
4.18897e-06
-5.53947e-06
3.48061e-06
-6.01415e-06
2.71523e-06
-6.42858e-06
1.88311e-06
-6.77815e-06
9.54891e-07
-7.03953e-06
-1.13825e-07
-7.16156e-06
-1.37391e-06
-7.05779e-06
-2.86141e-06
-6.60877e-06
-4.55406e-06
-5.69026e-06
-6.29566e-06
-4.2491e-06
-7.69843e-06
-2.43848e-06
-8.07595e-06
-7.60102e-07
-6.56665e-06
-2.72341e-06
-4.49941e-07
2.31333e-06
-1.35328e-06
5.08807e-06
-2.37829e-06
6.31656e-06
-3.35074e-06
6.52834e-06
-4.20766e-06
6.17895e-06
-4.94242e-06
5.55766e-06
-5.57171e-06
4.81826e-06
-6.11975e-06
4.02865e-06
-6.61077e-06
3.20624e-06
-7.06388e-06
2.33623e-06
-7.48694e-06
1.37795e-06
-7.86699e-06
2.66226e-07
-8.15679e-06
-1.08411e-06
-8.25791e-06
-2.76029e-06
-8.00964e-06
-4.80233e-06
-7.20485e-06
-7.10045e-06
-5.67173e-06
-9.23155e-06
-3.4677e-06
-1.028e-05
-1.1709e-06
-8.86344e-06
-3.89431e-06
-5.9309e-07
2.90642e-06
-1.69384e-06
6.18882e-06
-2.85771e-06
7.48044e-06
-3.89066e-06
7.56129e-06
-4.74635e-06
7.03463e-06
-5.43999e-06
6.25131e-06
-6.00734e-06
5.3856e-06
-6.48877e-06
4.51008e-06
-6.92332e-06
3.6408e-06
-7.34527e-06
2.75817e-06
-7.77943e-06
1.81211e-06
-8.23188e-06
7.18677e-07
-8.67391e-06
-6.42082e-07
-9.01715e-06
-2.41704e-06
-9.08226e-06
-4.73722e-06
-8.58678e-06
-7.59593e-06
-7.20174e-06
-1.06166e-05
-4.77262e-06
-1.27091e-05
-1.79746e-06
-1.18386e-05
-5.69177e-06
-8.16039e-07
3.72245e-06
-2.15226e-06
7.52504e-06
-3.41176e-06
8.73995e-06
-4.40882e-06
8.55835e-06
-5.14275e-06
7.76856e-06
-5.66698e-06
6.77554e-06
-6.0442e-06
5.76282e-06
-6.33397e-06
4.79984e-06
-6.59009e-06
3.89692e-06
-6.86072e-06
3.0288e-06
-7.18755e-06
2.13895e-06
-7.60108e-06
1.13221e-06
-8.10467e-06
-1.38499e-07
-8.65429e-06
-1.86742e-06
-9.10035e-06
-4.29116e-06
-9.13946e-06
-7.55683e-06
-8.2976e-06
-1.14585e-05
-6.09209e-06
-1.49146e-05
-2.64263e-06
-1.52881e-05
-8.3344e-06
-1.17542e-06
4.89787e-06
-2.74798e-06
9.0976e-06
-3.94375e-06
9.93571e-06
-4.67633e-06
9.29093e-06
-5.04895e-06
8.14118e-06
-5.17832e-06
6.90491e-06
-5.16265e-06
5.74716e-06
-5.08043e-06
4.71762e-06
-4.99485e-06
3.81134e-06
-4.95962e-06
2.99356e-06
-5.02454e-06
2.20387e-06
-5.23952e-06
1.34719e-06
-5.64614e-06
2.68125e-07
-6.27195e-06
-1.24161e-06
-7.06295e-06
-3.50015e-06
-7.80201e-06
-6.81777e-06
-7.97759e-06
-1.12829e-05
-6.75533e-06
-1.61369e-05
-3.51655e-06
-1.85268e-05
-1.18509e-05
-1.75581e-06
6.65368e-06
-3.40001e-06
1.07418e-05
-4.08981e-06
1.06255e-05
-4.07906e-06
9.28018e-06
-3.67076e-06
7.73289e-06
-3.06697e-06
6.30111e-06
-2.39646e-06
5.07665e-06
-1.74238e-06
4.06353e-06
-1.15982e-06
3.22879e-06
-6.89906e-07
2.52364e-06
-3.72175e-07
1.88614e-06
-2.56213e-07
1.23123e-06
-4.18075e-07
4.29987e-07
-9.44922e-07
-7.14767e-07
-1.932e-06
-2.51307e-06
-3.37214e-06
-5.37764e-06
-4.93327e-06
-9.72174e-06
-5.61988e-06
-1.54503e-05
-3.88555e-06
-2.02612e-05
-1.57365e-05
-2.60839e-06
9.26208e-06
-3.48631e-06
1.16197e-05
-2.62511e-06
9.76433e-06
-1.04895e-06
7.70401e-06
6.92609e-07
5.99133e-06
2.37077e-06
4.62295e-06
3.8888e-06
3.55862e-06
5.20843e-06
2.7439e-06
6.3193e-06
2.11792e-06
7.21993e-06
1.62302e-06
7.90261e-06
1.20345e-06
8.33786e-06
7.95982e-07
8.45288e-06
3.14972e-07
8.11515e-06
-3.77038e-07
7.10568e-06
-1.5036e-06
5.15619e-06
-3.42815e-06
2.17151e-06
-6.73706e-06
-1.16347e-06
-1.21153e-05
-2.68399e-06
-1.87407e-05
-1.84205e-05
-2.45248e-06
1.17146e-05
1.94857e-07
8.97238e-06
4.3459e-06
5.61329e-06
8.14464e-06
3.90526e-06
1.13343e-05
2.80169e-06
1.39516e-05
2.00561e-06
1.60688e-05
1.4414e-06
1.77647e-05
1.04805e-06
1.91121e-05
7.70534e-07
2.0168e-05
5.67142e-07
2.09659e-05
4.05455e-07
2.15064e-05
2.55543e-07
2.17347e-05
8.66116e-08
2.15304e-05
-1.72651e-07
2.06228e-05
-5.96075e-07
1.85534e-05
-1.35868e-06
1.46968e-05
-2.88046e-06
8.7459e-06
-6.16442e-06
2.31589e-06
-1.23106e-05
-1.61046e-05
1.17146e-05
2.06869e-05
2.63002e-05
3.02055e-05
3.30072e-05
3.50128e-05
3.64542e-05
3.75022e-05
3.82728e-05
3.88399e-05
3.92454e-05
3.95009e-05
3.95875e-05
3.94149e-05
3.88188e-05
3.74601e-05
3.45797e-05
2.84152e-05
1.61046e-05
)
;

boundaryField
{
    movingWall
    {
        type            calculated;
        value           uniform 0;
    }
    fixedWalls
    {
        type            calculated;
        value           uniform 0;
    }
    frontAndBack
    {
        type            empty;
        value           nonuniform 0();
    }
}


// ************************************************************************* //
