/*--------------------------------*- C++ -*----------------------------------*\
  =========                 |
  \\      /  F ield         | OpenFOAM: The Open Source CFD Toolbox
   \\    /   O peration     | Website:  https://openfoam.org
    \\  /    A nd           | Version:  7
     \\/     M anipulation  |
\*---------------------------------------------------------------------------*/
FoamFile
{
    version     2.0;
    format      ascii;
    class       volVectorField;
    location    "0.1";
    object      U;
}
// * * * * * * * * * * * * * * * * * * * * * * * * * * * * * * * * * * * * * //

dimensions      [0 1 -1 0 0 0 0];

internalField   nonuniform List<vector> 
400
(
(4.59399e-05 -5.04239e-05 0)
(-0.000367308 0.000258524 0)
(-0.00157698 0.000500159 0)
(-0.00317078 0.000601706 0)
(-0.00487165 0.000610546 0)
(-0.00650382 0.000566423 0)
(-0.00795955 0.000491296 0)
(-0.00916848 0.000395103 0)
(-0.010078 0.000281347 0)
(-0.0106432 0.000151256 0)
(-0.0108246 6.30715e-06 0)
(-0.0105904 -0.000150329 0)
(-0.00992218 -0.000312429 0)
(-0.00882367 -0.000469511 0)
(-0.00733309 -0.000604982 0)
(-0.00554019 -0.000694026 0)
(-0.00360558 -0.000701978 0)
(-0.00177708 -0.00058416 0)
(-0.000405017 -0.000302819 0)
(5.80024e-05 4.96464e-05 0)
(-0.000266348 0.000364431 0)
(-0.00175802 0.00172661 0)
(-0.00473756 0.00269699 0)
(-0.00842883 0.00312237 0)
(-0.0122938 0.00314751 0)
(-0.0159887 0.00291405 0)
(-0.0192754 0.00251369 0)
(-0.0219866 0.00199619 0)
(-0.023998 0.00138592 0)
(-0.0252103 0.000696808 0)
(-0.0255432 -5.72117e-05 0)
(-0.0249392 -0.000855209 0)
(-0.0233737 -0.00166349 0)
(-0.0208717 -0.00242961 0)
(-0.0175316 -0.00307558 0)
(-0.0135545 -0.00349171 0)
(-0.00927113 -0.00353613 0)
(-0.00515403 -0.00304855 0)
(-0.00186634 -0.0019187 0)
(-0.000263892 -0.000382862 0)
(-0.000532555 0.00160493 0)
(-0.00289811 0.0047568 0)
(-0.00721658 0.00682594 0)
(-0.012387 0.00772788 0)
(-0.0177127 0.00774005 0)
(-0.0227665 0.00714463 0)
(-0.0272428 0.00613981 0)
(-0.0309203 0.00484303 0)
(-0.033634 0.00331936 0)
(-0.0352536 0.00161058 0)
(-0.035676 -0.000242925 0)
(-0.0348288 -0.00218618 0)
(-0.0326829 -0.00413614 0)
(-0.0292733 -0.00596807 0)
(-0.0247301 -0.00750165 0)
(-0.0193149 -0.00849106 0)
(-0.0134505 -0.00863089 0)
(-0.00773214 -0.00759894 0)
(-0.0030239 -0.00518751 0)
(-0.000526735 -0.00166816 0)
(-0.000703826 0.00337807 0)
(-0.00371018 0.00882487 0)
(-0.00906381 0.0121926 0)
(-0.015363 0.013606 0)
(-0.0217765 0.0135435 0)
(-0.0278238 0.012461 0)
(-0.0331633 0.0106813 0)
(-0.0375469 0.00840052 0)
(-0.040789 0.00573178 0)
(-0.0427405 0.00274993 0)
(-0.0432802 -0.000473704 0)
(-0.042318 -0.00384495 0)
(-0.0398086 -0.00722292 0)
(-0.0357778 -0.010397 0)
(-0.0303604 -0.0130635 0)
(-0.0238485 -0.0148109 0)
(-0.01673 -0.0151329 0)
(-0.00970814 -0.0135004 0)
(-0.00384524 -0.00954727 0)
(-0.000683988 -0.0034745 0)
(-0.000824803 0.00551692 0)
(-0.00434493 0.0136688 0)
(-0.0105778 0.018497 0)
(-0.0178483 0.0204371 0)
(-0.0251976 0.0202401 0)
(-0.0320988 0.018573 0)
(-0.0381878 0.0159001 0)
(-0.043204 0.0125024 0)
(-0.0469507 0.00854175 0)
(-0.0492652 0.00412414 0)
(-0.0500065 -0.000651532 0)
(-0.0490565 -0.00565511 0)
(-0.0463368 -0.0106875 0)
(-0.0418399 -0.0154448 0)
(-0.0356802 -0.0194812 0)
(-0.0281606 -0.0221858 0)
(-0.0198312 -0.022802 0)
(-0.0115265 -0.0205318 0)
(-0.00454688 -0.0147839 0)
(-0.000795717 -0.0056451 0)
(-0.000936037 0.0079679 0)
(-0.0049508 0.0192222 0)
(-0.0120505 0.0256873 0)
(-0.0202902 0.028182 0)
(-0.0285793 0.0278008 0)
(-0.0363452 0.0254649 0)
(-0.0432077 0.021801 0)
(-0.0489012 0.0171811 0)
(-0.0532251 0.0118136 0)
(-0.0560052 0.00582816 0)
(-0.0570765 -0.00065923 0)
(-0.0562804 -0.00749336 0)
(-0.0534826 -0.0144233 0)
(-0.0486135 -0.0210479 0)
(-0.0417342 -0.0267559 0)
(-0.0331352 -0.0306874 0)
(-0.0234299 -0.0317585 0)
(-0.0136237 -0.0288112 0)
(-0.0053344 -0.0209537 0)
(-0.000911512 -0.00816406 0)
(-0.00106411 0.0107474 0)
(-0.0056369 0.0255306 0)
(-0.013707 0.033828 0)
(-0.0230283 0.0369131 0)
(-0.0323642 0.0362996 0)
(-0.0410961 0.0332141 0)
(-0.048834 0.0284705 0)
(-0.055317 0.0225391 0)
(-0.0603484 0.0156699 0)
(-0.0637468 0.00800307 0)
(-0.065321 -0.000346693 0)
(-0.064859 -0.00921686 0)
(-0.0621445 -0.0183244 0)
(-0.0570059 -0.0271738 0)
(-0.049403 -0.0349629 0)
(-0.0395697 -0.0405144 0)
(-0.0281686 -0.0423025 0)
(-0.0164213 -0.0386664 0)
(-0.00639239 -0.0283051 0)
(-0.00106776 -0.0111157 0)
(-0.00122721 0.0139223 0)
(-0.00648322 0.0327279 0)
(-0.0157148 0.0430739 0)
(-0.0263086 0.0467805 0)
(-0.0368586 0.0458744 0)
(-0.0467023 0.0419497 0)
(-0.0554516 0.0360386 0)
(-0.0628645 0.0287178 0)
(-0.0687631 0.0202721 0)
(-0.0729699 0.0108341 0)
(-0.0752685 0.000490028 0)
(-0.0753867 -0.0106252 0)
(-0.0730005 -0.0222296 0)
(-0.0677815 -0.0337528 0)
(-0.0595129 -0.0441839 0)
(-0.048289 -0.0519445 0)
(-0.0347664 -0.0548982 0)
(-0.0204143 -0.0506515 0)
(-0.00793663 -0.0372993 0)
(-0.00130329 -0.0146798 0)
(-0.00144155 0.0175992 0)
(-0.00755983 0.0410206 0)
(-0.0182154 0.05365 0)
(-0.0303256 0.0579871 0)
(-0.0422839 0.0566968 0)
(-0.0533921 0.051821 0)
(-0.063284 0.0446484 0)
(-0.0717606 0.0358727 0)
(-0.0786868 0.0258051 0)
(-0.0839103 0.0145478 0)
(-0.0872066 0.00212106 0)
(-0.0882434 -0.0114227 0)
(-0.0865648 -0.0258592 0)
(-0.0816246 -0.0405956 0)
(-0.07292 -0.0544214 0)
(-0.0602595 -0.0652703 0)
(-0.0441565 -0.0701629 0)
(-0.0263016 -0.065596 0)
(-0.010294 -0.0486825 0)
(-0.00168118 -0.0191652 0)
(-0.00172852 0.0219243 0)
(-0.00894935 0.0506833 0)
(-0.0213595 0.0658365 0)
(-0.0352642 0.0707627 0)
(-0.0488195 0.0689391 0)
(-0.0613117 0.06296 0)
(-0.0724294 0.0544187 0)
(-0.0820522 0.0441387 0)
(-0.0901244 0.0324488 0)
(-0.0965562 0.0193945 0)
(-0.101149 0.00488261 0)
(-0.103532 -0.0111877 0)
(-0.10311 -0.0287478 0)
(-0.0990608 -0.0472879 0)
(-0.0904579 -0.0654676 0)
(-0.0765962 -0.0806812 0)
(-0.0575706 -0.0888161 0)
(-0.0351209 -0.0846626 0)
(-0.0140114 -0.0636214 0)
(-0.00232311 -0.0250967 0)
(-0.00212409 0.0271001 0)
(-0.0107731 0.0620704 0)
(-0.0253426 0.0799604 0)
(-0.0413298 0.0853359 0)
(-0.0566201 0.0827331 0)
(-0.0705251 0.0754335 0)
(-0.0828386 0.0653915 0)
(-0.0935677 0.053575 0)
(-0.102786 0.0403238 0)
(-0.11052 0.0256007 0)
(-0.116654 0.00914781 0)
(-0.120834 -0.00937793 0)
(-0.122359 -0.0302026 0)
(-0.120107 -0.0530821 0)
(-0.112587 -0.0767282 0)
(-0.0982839 -0.0980528 0)
(-0.0764101 -0.111524 0)
(-0.0482957 -0.109359 0)
(-0.0199852 -0.0838938 0)
(-0.00346659 -0.0333834 0)
(-0.00269427 0.0334207 0)
(-0.0132255 0.0756424 0)
(-0.0304359 0.0963835 0)
(-0.0487553 0.10189 0)
(-0.0657852 0.098106 0)
(-0.0809416 0.0891666 0)
(-0.0941974 0.0774456 0)
(-0.105749 0.0640694 0)
(-0.115859 0.0493851 0)
(-0.124737 0.0332542 0)
(-0.132433 0.0152092 0)
(-0.138706 -0.00542904 0)
(-0.142846 -0.0293527 0)
(-0.14349 -0.0568535 0)
(-0.138528 -0.0870394 0)
(-0.125332 -0.116621 0)
(-0.1016 -0.138526 0)
(-0.0673657 -0.141334 0)
(-0.0295446 -0.112045 0)
(-0.0055522 -0.0455933 0)
(-0.00356369 0.0413402 0)
(-0.0166254 0.0920002 0)
(-0.0370065 0.115461 0)
(-0.0577491 0.120468 0)
(-0.0762226 0.114858 0)
(-0.0920954 0.103806 0)
(-0.105626 0.090148 0)
(-0.117275 0.0751745 0)
(-0.127554 0.0592369 0)
(-0.136925 0.0420904 0)
(-0.145693 0.0230353 0)
(-0.153858 0.000984525 0)
(-0.160884 -0.025391 0)
(-0.16537 -0.0572423 0)
(-0.164726 -0.094598 0)
(-0.155104 -0.134588 0)
(-0.132052 -0.168922 0)
(-0.0929988 -0.181659 0)
(-0.044287 -0.151221 0)
(-0.00932208 -0.0643043 0)
(-0.00497107 0.0515973 0)
(-0.0214908 0.111907 0)
(-0.0454881 0.137415 0)
(-0.0682951 0.140762 0)
(-0.0872701 0.132324 0)
(-0.102611 0.118472 0)
(-0.115022 0.102507 0)
(-0.125307 0.0858556 0)
(-0.134284 0.0688627 0)
(-0.142707 0.0511842 0)
(-0.151197 0.0319016 0)
(-0.160122 0.0095074 0)
(-0.169344 -0.0180645 0)
(-0.177806 -0.0531085 0)
(-0.182914 -0.0971964 0)
(-0.179958 -0.148869 0)
(-0.162112 -0.199698 0)
(-0.122855 -0.229302 0)
(-0.0651844 -0.204116 0)
(-0.0158021 -0.0932993 0)
(-0.00737418 0.0654408 0)
(-0.0286383 0.136231 0)
(-0.0561912 0.161986 0)
(-0.0795659 0.161655 0)
(-0.0967597 0.148908 0)
(-0.109014 0.131341 0)
(-0.117709 0.112606 0)
(-0.12409 0.0941739 0)
(-0.129298 0.0763377 0)
(-0.134356 0.058653 0)
(-0.140178 0.040031 0)
(-0.147529 0.018632 0)
(-0.156835 -0.00828269 0)
(-0.167857 -0.0442614 0)
(-0.178844 -0.092885 0)
(-0.1853 -0.155289 0)
(-0.178813 -0.224926 0)
(-0.148396 -0.279034 0)
(-0.0901732 -0.270547 0)
(-0.025718 -0.137228 0)
(-0.0116159 0.0850632 0)
(-0.0392164 0.165606 0)
(-0.0685659 0.187598 0)
(-0.0883272 0.18031 0)
(-0.0988371 0.161286 0)
(-0.103261 0.139023 0)
(-0.103935 0.117185 0)
(-0.102596 0.0970597 0)
(-0.100633 0.078749 0)
(-0.0991918 0.0616635 0)
(-0.0992922 0.0446072 0)
(-0.101932 0.0256025 0)
(-0.10808 0.00155044 0)
(-0.118603 -0.032089 0)
(-0.133477 -0.0808351 0)
(-0.150213 -0.149334 0)
(-0.161095 -0.235659 0)
(-0.152168 -0.319506 0)
(-0.11009 -0.34376 0)
(-0.03748 -0.200777 0)
(-0.0190112 0.114697 0)
(-0.0540584 0.199068 0)
(-0.0784003 0.209093 0)
(-0.0845535 0.190152 0)
(-0.0790689 0.163001 0)
(-0.0680417 0.135794 0)
(-0.0547455 0.111409 0)
(-0.04115 0.0904806 0)
(-0.0285555 0.07266 0)
(-0.0178635 0.0571128 0)
(-0.00982934 0.0425908 0)
(-0.00531322 0.0272284 0)
(-0.00553888 0.00810422 0)
(-0.0122288 -0.0193867 0)
(-0.0274045 -0.061819 0)
(-0.0522949 -0.127141 0)
(-0.0834634 -0.220507 0)
(-0.108617 -0.33161 0)
(-0.105907 -0.404821 0)
(-0.0435653 -0.284895 0)
(-0.0300496 0.163001 0)
(-0.0688005 0.229187 0)
(-0.0666612 0.211163 0)
(-0.0390936 0.176602 0)
(-0.00394865 0.142663 0)
(0.0311259 0.113369 0)
(0.0634597 0.0894797 0)
(0.0919757 0.070476 0)
(0.116304 0.0553665 0)
(0.136403 0.0430505 0)
(0.152245 0.0323298 0)
(0.163513 0.0217071 0)
(0.169237 0.00900637 0)
(0.167444 -0.00923926 0)
(0.154671 -0.0386699 0)
(0.125908 -0.0881193 0)
(0.0772171 -0.169476 0)
(0.0112602 -0.289985 0)
(-0.0502295 -0.415218 0)
(-0.0260894 -0.366348 0)
(-0.0261089 0.231907 0)
(-0.0373244 0.229973 0)
(0.0415431 0.167688 0)
(0.12603 0.123695 0)
(0.197181 0.092212 0)
(0.255228 0.0685457 0)
(0.302314 0.0509995 0)
(0.340155 0.0381944 0)
(0.370295 0.0288041 0)
(0.394072 0.0217171 0)
(0.412429 0.0159906 0)
(0.425743 0.0106799 0)
(0.433495 0.00461507 0)
(0.434083 -0.00384134 0)
(0.423801 -0.0176865 0)
(0.395763 -0.042429 0)
(0.339447 -0.0895369 0)
(0.241205 -0.181277 0)
(0.101854 -0.322478 0)
(0.057778 -0.36167 0)
(0.263056 0.139123 0)
(0.328862 0.121051 0)
(0.462537 0.0795744 0)
(0.567471 0.0526673 0)
(0.636374 0.035624 0)
(0.683243 0.024133 0)
(0.71674 0.0163464 0)
(0.741083 0.0111526 0)
(0.75888 0.00769942 0)
(0.771957 0.00535786 0)
(0.781471 0.00366861 0)
(0.787957 0.00226052 0)
(0.791295 0.000751399 0)
(0.790479 -0.00120313 0)
(0.782965 -0.00437147 0)
(0.76381 -0.0101322 0)
(0.72309 -0.021527 0)
(0.640521 -0.0475615 0)
(0.471659 -0.109068 0)
(0.340475 -0.155064 0)
)
;

boundaryField
{
    movingWall
    {
        type            fixedValue;
        value           uniform (1 0 0);
    }
    fixedWalls
    {
        type            noSlip;
    }
    frontAndBack
    {
        type            empty;
    }
}


// ************************************************************************* //
