/*--------------------------------*- C++ -*----------------------------------*\
  =========                 |
  \\      /  F ield         | OpenFOAM: The Open Source CFD Toolbox
   \\    /   O peration     | Website:  https://openfoam.org
    \\  /    A nd           | Version:  7
     \\/     M anipulation  |
\*---------------------------------------------------------------------------*/
FoamFile
{
    version     2.0;
    format      ascii;
    class       volScalarField;
    location    "0.4";
    object      p;
}
// * * * * * * * * * * * * * * * * * * * * * * * * * * * * * * * * * * * * * //

dimensions      [0 2 -2 0 0 0 0];

internalField   nonuniform List<scalar> 
400
(
-8.57157e-06
-0.0557037
-0.0772313
-0.0596217
-0.00629747
0.0745685
0.174606
0.28746
0.408891
0.536338
0.668255
0.80332
0.939523
1.07313
1.19765
1.30312
1.37652
1.4055
1.38509
1.32279
0.0131552
-0.0351572
-0.0484554
-0.0292038
0.0213362
0.0973431
0.192054
0.299956
0.417025
0.540521
0.668496
0.799149
0.930057
1.05732
1.17476
1.27356
1.3428
1.37301
1.36172
1.30787
0.0295414
-0.0201746
-0.028375
-0.00761254
0.0414717
0.114348
0.205306
0.309492
0.42311
0.543351
0.66804
0.795097
0.921892
1.04453
1.1572
1.25197
1.31919
1.35086
1.34512
1.2897
0.0442499
-0.0127537
-0.018611
0.00359945
0.0526165
0.124242
0.213253
0.31522
0.426556
0.544488
0.666779
0.791282
0.915377
1.03534
1.14576
1.23927
1.30674
1.34034
1.33724
1.27367
0.0535609
-0.0127454
-0.0170789
0.00701019
0.057103
0.128857
0.217222
0.318052
0.427952
0.544247
0.664746
0.787375
0.909673
1.02822
1.13805
1.23225
1.30181
1.3384
1.33741
1.26356
0.0543066
-0.0214847
-0.0239892
0.00291841
0.0553635
0.128586
0.217516
0.318207
0.427451
0.542718
0.66196
0.783282
0.904511
1.02265
1.13326
1.22989
1.30345
1.3447
1.34664
1.26251
0.0436424
-0.0407753
-0.0403049
-0.00907587
0.0473031
0.12347
0.21423
0.31579
0.42515
0.539987
0.658479
0.779018
0.899835
1.01848
1.13116
1.23195
1.31164
1.35983
1.36657
1.27336
0.0187829
-0.0724218
-0.0669017
-0.0291782
0.033082
0.11382
0.2077
0.311106
0.421302
0.536251
0.65444
0.774646
0.895611
1.01556
1.1315
1.23816
1.32637
1.38446
1.39892
1.29906
-0.0233867
-0.118282
-0.104519
-0.0573345
0.0131633
0.100234
0.198509
0.304656
0.416309
0.531812
0.650053
0.770277
0.891835
1.01375
1.134
1.24824
1.3476
1.4193
1.44561
1.34311
-0.0868048
-0.180342
-0.153739
-0.093199
-0.0116779
0.0835836
0.187457
0.297103
0.410687
0.527057
0.645588
0.76607
0.888538
1.01294
1.13841
1.26188
1.37527
1.46513
1.50886
1.4102
-0.176883
-0.260715
-0.214858
-0.136012
-0.0402779
0.0650407
0.175553
0.289244
0.405039
0.522424
0.641349
0.762202
0.885764
1.013
1.14444
1.27867
1.40921
1.52266
1.59123
1.50688
-0.301405
-0.361563
-0.287678
-0.184432
-0.0709964
0.0460974
0.163996
0.281981
0.400012
0.518365
0.637634
0.758835
0.88352
1.01375
1.15166
1.298
1.44892
1.59239
1.6955
1.64249
-0.471816
-0.484852
-0.371154
-0.236318
-0.101629
0.0285635
0.15413
0.276258
0.396249
0.515304
0.634697
0.75607
0.881732
1.01488
1.15943
1.31888
1.49337
1.67414
1.82439
1.83031
-0.70506
-0.631806
-0.462797
-0.288428
-0.129327
0.0145357
0.147374
0.272991
0.394321
0.513578
0.632702
0.753904
0.880189
1.01586
1.1668
1.33973
1.54053
1.76645
1.98001
2.08915
-1.02564
-0.801862
-0.557916
-0.336145
-0.150588
0.00629343
0.145101
0.272966
0.394656
0.513387
0.631683
0.7522
0.878514
1.01595
1.17234
1.35819
1.58702
1.86559
2.16254
2.44467
-1.46623
-0.991002
-0.649138
-0.373601
-0.161547
0.00601793
0.148421
0.2767
0.39745
0.514751
0.631524
0.750686
0.876183
1.01416
1.17429
1.37115
1.62792
1.9649
2.36839
2.92899
-2.06807
-1.1887
-0.724649
-0.393491
-0.158269
0.0154984
0.157977
0.284311
0.402606
0.517478
0.631965
0.748984
0.872569
1.00934
1.17046
1.37458
1.65617
2.05293
2.58754
3.5824
-2.8997
-1.36787
-0.755437
-0.381966
-0.134905
0.0370036
0.174445
0.295837
0.409931
0.521281
0.632631
0.74654
0.866744
0.999783
1.15743
1.36148
1.65717
2.10192
2.79589
4.47866
-4.09317
-1.45666
-0.677928
-0.311022
-0.0805938
0.0749472
0.19963
0.311959
0.419595
0.526039
0.633123
0.742557
0.857197
0.982594
1.12949
1.31959
1.60184
2.04947
2.92902
5.75636
-5.6046
-1.35524
-0.468231
-0.179194
0.000643271
0.125373
0.230752
0.330887
0.430508
0.531164
0.633262
0.737256
0.844645
0.959183
1.08887
1.25107
1.4867
1.86799
2.87874
7.33753
)
;

boundaryField
{
    movingWall
    {
        type            zeroGradient;
    }
    fixedWalls
    {
        type            zeroGradient;
    }
    frontAndBack
    {
        type            empty;
    }
}


// ************************************************************************* //
