/*--------------------------------*- C++ -*----------------------------------*\
  =========                 |
  \\      /  F ield         | OpenFOAM: The Open Source CFD Toolbox
   \\    /   O peration     | Website:  https://openfoam.org
    \\  /    A nd           | Version:  7
     \\/     M anipulation  |
\*---------------------------------------------------------------------------*/
FoamFile
{
    version     2.0;
    format      ascii;
    class       surfaceScalarField;
    location    "0.4";
    object      phi;
}
// * * * * * * * * * * * * * * * * * * * * * * * * * * * * * * * * * * * * * //

dimensions      [0 3 -1 0 0 0 0];

internalField   nonuniform List<scalar> 
760
(
2.00432e-09
-1.96471e-09
-1.50921e-07
1.52926e-07
-3.68213e-07
2.17292e-07
-5.90138e-07
2.21924e-07
-7.84546e-07
1.94409e-07
-9.39576e-07
1.5503e-07
-1.0555e-06
1.15924e-07
-1.13759e-06
8.20863e-08
-1.19167e-06
5.40787e-08
-1.22156e-06
2.98894e-08
-1.22766e-06
6.10879e-09
-1.20638e-06
-2.12885e-08
-1.1502e-06
-5.61723e-08
-1.04915e-06
-1.01056e-07
-8.94053e-07
-1.55094e-07
-6.82906e-07
-2.11147e-07
-4.3054e-07
-2.52366e-07
-1.78318e-07
-2.52223e-07
9.67786e-12
-1.78328e-07
9.59897e-12
-9.9504e-08
9.75392e-08
-5.0025e-07
5.53671e-07
-1.04899e-06
7.66037e-07
-1.61307e-06
7.85996e-07
-2.11362e-06
6.94957e-07
-2.51823e-06
5.59641e-07
-2.82397e-06
4.21668e-07
-3.04141e-06
2.99529e-07
-3.18356e-06
1.96224e-07
-3.25911e-06
1.05445e-07
-3.26881e-06
1.58088e-08
-3.20395e-06
-8.61561e-08
-3.04706e-06
-2.13057e-07
-2.77578e-06
-3.72335e-07
-2.37137e-06
-5.59502e-07
-1.83369e-06
-7.48831e-07
-1.20214e-06
-8.83919e-07
-5.75476e-07
-8.78884e-07
-1.15533e-07
-6.3827e-07
-1.15524e-07
-2.27011e-07
3.2455e-07
-8.50293e-07
1.17695e-06
-1.66603e-06
1.58177e-06
-2.49579e-06
1.61576e-06
-3.23137e-06
1.43054e-06
-3.82717e-06
1.15544e-06
-4.27822e-06
8.72714e-07
-4.59873e-06
6.20038e-07
-4.80666e-06
4.04159e-07
-4.91416e-06
2.12938e-07
-4.92229e-06
2.39439e-08
-4.81911e-06
-1.89337e-07
-4.58079e-06
-4.51381e-07
-4.17711e-06
-7.76016e-07
-3.58334e-06
-1.15327e-06
-2.80041e-06
-1.53176e-06
-1.88239e-06
-1.80193e-06
-9.62417e-07
-1.79886e-06
-2.56296e-07
-1.34439e-06
-3.7182e-07
-3.50882e-07
6.75432e-07
-1.17737e-06
2.00344e-06
-2.21328e-06
2.61769e-06
-3.24728e-06
2.64975e-06
-4.1551e-06
2.33837e-06
-4.88643e-06
1.88677e-06
-5.43788e-06
1.42416e-06
-5.82788e-06
1.01003e-06
-6.07867e-06
6.54946e-07
-6.20523e-06
3.39503e-07
-6.20934e-06
2.80501e-08
-6.07731e-06
-3.21366e-07
-5.78139e-06
-7.473e-07
-5.28592e-06
-1.27149e-06
-4.56061e-06
-1.87858e-06
-3.60334e-06
-2.48903e-06
-2.47189e-06
-2.93339e-06
-1.31629e-06
-2.95446e-06
-3.90053e-07
-2.27062e-06
-7.61874e-07
-4.65269e-07
1.1407e-06
-1.47363e-06
3.0118e-06
-2.68856e-06
3.83262e-06
-3.87181e-06
3.833e-06
-4.89351e-06
3.36007e-06
-5.70681e-06
2.70007e-06
-6.31436e-06
2.03172e-06
-6.74037e-06
1.43604e-06
-7.01143e-06
9.26006e-07
-7.14526e-06
4.73339e-07
-7.14475e-06
2.75436e-08
-6.99576e-06
-4.70361e-07
-6.66833e-06
-1.07472e-06
-6.1226e-06
-1.81722e-06
-5.32177e-06
-2.67941e-06
-4.25546e-06
-3.55534e-06
-2.97461e-06
-4.21425e-06
-1.6325e-06
-4.29656e-06
-5.12137e-07
-3.39099e-06
-1.27401e-06
-5.70536e-07
1.71124e-06
-1.73844e-06
4.1797e-06
-3.09203e-06
5.18621e-06
-4.37124e-06
5.11221e-06
-5.45001e-06
4.43883e-06
-6.29286e-06
3.54292e-06
-6.91307e-06
2.65194e-06
-7.34236e-06
1.86532e-06
-7.61199e-06
1.19564e-06
-7.7424e-06
6.03744e-07
-7.73797e-06
2.31175e-08
-7.58514e-06
-6.23192e-07
-7.25316e-06
-1.40671e-06
-6.69874e-06
-2.37164e-06
-5.87727e-06
-3.50088e-06
-4.76494e-06
-4.66767e-06
-3.39585e-06
-5.58334e-06
-1.91406e-06
-5.77836e-06
-6.24825e-07
-4.68022e-06
-1.89884e-06
-6.70073e-07
2.38131e-06
-1.97461e-06
5.48424e-06
-3.42441e-06
6.63602e-06
-4.74465e-06
6.43245e-06
-5.82313e-06
5.51731e-06
-6.64357e-06
4.36335e-06
-7.23402e-06
3.24239e-06
-7.63514e-06
2.26644e-06
-7.88291e-06
1.44341e-06
-8.00027e-06
7.21101e-07
-7.99335e-06
1.6196e-08
-7.85004e-06
-7.66496e-07
-7.54012e-06
-1.71663e-06
-7.01782e-06
-2.89394e-06
-6.22988e-06
-4.28881e-06
-5.13457e-06
-5.76299e-06
-3.73962e-06
-6.97829e-06
-2.1667e-06
-7.35127e-06
-7.33459e-07
-6.11347e-06
-2.6323e-06
-7.69254e-07
3.15057e-06
-2.18642e-06
6.9014e-06
-3.68524e-06
8.13484e-06
-4.98727e-06
7.73448e-06
-6.00603e-06
6.53606e-06
-6.75213e-06
5.10945e-06
-7.27179e-06
3.76205e-06
-7.61517e-06
2.60982e-06
-7.82235e-06
1.65059e-06
-7.91813e-06
8.16883e-07
-7.91037e-06
8.43695e-09
-7.78922e-06
-8.87641e-07
-7.52643e-06
-1.97943e-06
-7.07526e-06
-3.34511e-06
-6.37412e-06
-4.98996e-06
-5.36029e-06
-6.77681e-06
-4.00631e-06
-8.33227e-06
-2.39631e-06
-8.96127e-06
-8.45029e-07
-7.66475e-06
-3.47732e-06
-8.7495e-07
4.02552e-06
-2.37802e-06
8.40446e-06
-3.87085e-06
9.62768e-06
-5.08878e-06
8.95241e-06
-5.98536e-06
7.43264e-06
-6.60552e-06
5.72961e-06
-7.01553e-06
4.17207e-06
-7.27428e-06
2.86856e-06
-7.42437e-06
1.80068e-06
-7.49126e-06
8.83773e-07
-7.48414e-06
1.32206e-09
-7.39613e-06
-9.75655e-07
-7.20265e-06
-2.1729e-06
-6.85847e-06
-3.68929e-06
-6.29561e-06
-5.55282e-06
-5.42959e-06
-7.64283e-06
-4.19018e-06
-9.57168e-06
-2.60658e-06
-1.05449e-05
-9.67374e-07
-9.30395e-06
-4.4447e-06
-9.9528e-07
5.0208e-06
-2.55152e-06
9.9607e-06
-3.97165e-06
1.10478e-05
-5.03092e-06
1.00117e-05
-5.73981e-06
8.14154e-06
-6.18375e-06
6.17355e-06
-6.4488e-06
4.43712e-06
-6.59989e-06
3.01965e-06
-6.67943e-06
1.88021e-06
-6.71157e-06
9.15916e-07
-6.70612e-06
-4.13033e-09
-6.65969e-06
-1.02208e-06
-6.55346e-06
-2.27913e-06
-6.34708e-06
-3.89567e-06
-5.97038e-06
-5.92953e-06
-5.31948e-06
-8.29374e-06
-4.27652e-06
-1.06146e-05
-2.7966e-06
-1.20248e-05
-1.10855e-06
-1.0992e-05
-5.55325e-06
-1.13914e-06
6.15994e-06
-2.70412e-06
1.15257e-05
-3.96826e-06
1.2312e-05
-4.7843e-06
1.08277e-05
-5.23816e-06
8.59539e-06
-5.45913e-06
6.39453e-06
-5.54955e-06
4.52754e-06
-5.57546e-06
3.04556e-06
-5.57499e-06
1.87974e-06
-5.56844e-06
9.0936e-07
-5.56506e-06
-7.50985e-09
-5.5654e-06
-1.02174e-06
-5.55854e-06
-2.28598e-06
-5.51345e-06
-3.94076e-06
-5.36427e-06
-6.07871e-06
-4.99428e-06
-8.66373e-06
-4.23787e-06
-1.1371e-05
-2.95739e-06
-1.33053e-05
-1.27582e-06
-1.26736e-05
-6.82907e-06
-1.31475e-06
7.47469e-06
-2.82319e-06
1.30341e-05
-3.82576e-06
1.33145e-05
-4.30415e-06
1.13061e-05
-4.43701e-06
8.72825e-06
-4.39551e-06
6.35303e-06
-4.29031e-06
4.42234e-06
-4.18107e-06
2.93632e-06
-4.09643e-06
1.7951e-06
-4.0497e-06
8.62636e-07
-4.04822e-06
-8.98865e-09
-4.09661e-06
-9.73357e-07
-4.19397e-06
-2.18862e-06
-4.32355e-06
-3.81117e-06
-4.4326e-06
-5.96967e-06
-4.40312e-06
-8.6932e-06
-4.02926e-06
-1.17449e-05
-3.06659e-06
-1.42679e-05
-1.47331e-06
-1.42669e-05
-8.30238e-06
-1.52568e-06
9.00037e-06
-2.87762e-06
1.43861e-05
-3.48533e-06
1.39222e-05
-3.52507e-06
1.13458e-05
-3.27859e-06
8.48177e-06
-2.94802e-06
6.02246e-06
-2.63883e-06
4.11315e-06
-2.39446e-06
2.69195e-06
-2.2281e-06
1.62875e-06
-2.14291e-06
7.77437e-07
-2.14275e-06
-9.14874e-09
-2.23615e-06
-8.79954e-07
-2.43391e-06
-1.99086e-06
-2.73845e-06
-3.50663e-06
-3.12039e-06
-5.58772e-06
-3.4774e-06
-8.33619e-06
-3.58173e-06
-1.16406e-05
-3.07988e-06
-1.47698e-05
-1.69684e-06
-1.56499e-05
-9.99921e-06
-1.76154e-06
1.07619e-05
-2.80271e-06
1.54272e-05
-2.85245e-06
1.3972e-05
-2.35512e-06
1.08485e-05
-1.68923e-06
7.81587e-06
-1.06369e-06
5.39692e-06
-5.59533e-07
3.60899e-06
-1.92594e-07
2.32502e-06
4.5109e-08
1.39104e-06
1.63305e-07
6.59241e-07
1.62853e-07
-8.69677e-09
3.18567e-08
-7.48959e-07
-2.52837e-07
-1.70617e-06
-7.16572e-07
-3.0429e-06
-1.36368e-06
-4.94062e-06
-2.12876e-06
-7.57111e-06
-2.79424e-06
-1.09751e-05
-2.91732e-06
-1.46467e-05
-1.9232e-06
-1.6644e-05
-1.19224e-05
-1.97669e-06
1.27386e-05
-2.47448e-06
1.5925e-05
-1.78132e-06
1.32788e-05
-6.70492e-07
9.73769e-06
4.20381e-07
6.72499e-06
1.31613e-06
4.50117e-06
1.98385e-06
2.94127e-06
2.4461e-06
1.86276e-06
2.73606e-06
1.10109e-06
2.8776e-06
5.17696e-07
2.87705e-06
-8.14573e-09
2.72005e-06
-5.91961e-07
2.37187e-06
-1.35798e-06
1.78301e-06
-2.45405e-06
9.07654e-07
-4.06526e-06
-2.48432e-07
-6.41502e-06
-1.52417e-06
-9.69936e-06
-2.44188e-06
-1.3729e-05
-2.08824e-06
-1.69976e-05
-1.40107e-05
-2.04451e-06
1.47831e-05
-1.6681e-06
1.55486e-05
-5.69829e-08
1.16677e-05
1.68673e-06
7.99397e-06
3.15111e-06
5.26062e-06
4.25075e-06
3.40153e-06
5.02411e-06
2.16791e-06
5.53871e-06
1.34816e-06
5.85314e-06
7.86658e-07
6.00435e-06
3.66491e-07
6.00377e-06
-7.57561e-09
5.83587e-06
-4.24051e-07
5.45701e-06
-9.79135e-07
4.79636e-06
-1.79339e-06
3.76475e-06
-3.03364e-06
2.29032e-06
-4.94059e-06
4.21977e-07
-7.83102e-06
-1.42772e-06
-1.18793e-05
-2.04461e-06
-1.63808e-05
-1.60553e-05
-1.6683e-06
1.64514e-05
-8.03683e-10
1.38811e-05
2.62091e-06
9.04598e-06
4.90335e-06
5.71152e-06
6.60533e-06
3.55865e-06
7.79149e-06
2.21537e-06
8.58455e-06
1.37485e-06
9.094e-06
8.38708e-07
9.39796e-06
4.82693e-07
9.54202e-06
2.22438e-07
9.54106e-06
-6.6169e-09
9.3798e-06
-2.62792e-07
9.01069e-06
-6.10021e-07
8.34951e-06
-1.13222e-06
7.27204e-06
-1.95617e-06
5.62506e-06
-3.29362e-06
3.29488e-06
-5.50083e-06
4.82093e-07
-9.06653e-06
-1.48675e-06
-1.44119e-05
-1.7542e-05
-2.05577e-07
1.6657e-05
3.17389e-06
1.05016e-05
6.64394e-06
5.57594e-06
9.17387e-06
3.1816e-06
1.08671e-05
1.86537e-06
1.19685e-05
1.11397e-06
1.26713e-05
6.72057e-07
1.31083e-05
4.01792e-07
1.33631e-05
2.27827e-07
1.3482e-05
1.03552e-07
1.34802e-05
-4.77578e-09
1.33442e-05
-1.26853e-07
1.30297e-05
-2.9546e-07
1.24528e-05
-5.55342e-07
1.14762e-05
-9.79556e-07
9.88905e-06
-1.7065e-06
7.40299e-06
-3.01477e-06
3.84276e-06
-5.50629e-06
1.85806e-07
-1.0755e-05
-1.73562e-05
3.55311e-06
1.31039e-05
8.86153e-06
5.1932e-06
1.24507e-05
1.98672e-06
1.46423e-05
9.90017e-07
1.59658e-05
5.41902e-07
1.67716e-05
3.0814e-07
1.72638e-05
1.79832e-07
1.75606e-05
1.04993e-07
1.773e-05
5.84375e-08
1.78076e-05
2.59912e-08
1.78049e-05
-2.11003e-09
1.77123e-05
-3.42726e-08
1.74967e-05
-7.98353e-08
1.70934e-05
-1.51978e-07
1.63876e-05
-2.73837e-07
1.51754e-05
-4.94252e-07
1.3086e-05
-9.25382e-07
9.52024e-06
-1.94053e-06
4.03563e-06
-5.27036e-06
-1.33206e-05
1.31039e-05
1.82971e-05
2.02838e-05
2.12738e-05
2.18157e-05
2.21239e-05
2.23037e-05
2.24087e-05
2.24671e-05
2.24931e-05
2.2491e-05
2.24568e-05
2.23769e-05
2.22249e-05
2.19511e-05
2.14569e-05
2.05315e-05
1.85909e-05
1.33206e-05
)
;

boundaryField
{
    movingWall
    {
        type            calculated;
        value           uniform 0;
    }
    fixedWalls
    {
        type            calculated;
        value           uniform 0;
    }
    frontAndBack
    {
        type            empty;
        value           nonuniform 0();
    }
}


// ************************************************************************* //
