/*--------------------------------*- C++ -*----------------------------------*\
  =========                 |
  \\      /  F ield         | OpenFOAM: The Open Source CFD Toolbox
   \\    /   O peration     | Website:  https://openfoam.org
    \\  /    A nd           | Version:  7
     \\/     M anipulation  |
\*---------------------------------------------------------------------------*/
FoamFile
{
    version     2.0;
    format      ascii;
    class       volVectorField;
    location    "0.4";
    object      U;
}
// * * * * * * * * * * * * * * * * * * * * * * * * * * * * * * * * * * * * * //

dimensions      [0 1 -1 0 0 0 0];

internalField   nonuniform List<vector> 
400
(
(0.000717772 -0.000245808 0)
(-0.00204483 0.00108779 0)
(-0.0101176 0.00160608 0)
(-0.0192784 0.00163251 0)
(-0.0277867 0.00141342 0)
(-0.0348275 0.00111279 0)
(-0.0402251 0.000823637 0)
(-0.0441392 0.000580865 0)
(-0.046822 0.000386018 0)
(-0.0484836 0.000222143 0)
(-0.0492172 6.23014e-05 0)
(-0.0489601 -0.000125248 0)
(-0.0474833 -0.000371975 0)
(-0.0444168 -0.000700379 0)
(-0.0393371 -0.00110834 0)
(-0.031955 -0.00154454 0)
(-0.0224566 -0.00187673 0)
(-0.0118982 -0.0018874 0)
(-0.002501 -0.00128687 0)
(0.000774802 0.000253469 0)
(-0.000278104 0.000451754 0)
(-0.00963324 0.00603723 0)
(-0.0303251 0.00854172 0)
(-0.0535629 0.0087654 0)
(-0.0753369 0.00771883 0)
(-0.0935832 0.00618557 0)
(-0.107737 0.0046428 0)
(-0.11808 0.00329441 0)
(-0.125164 0.00216844 0)
(-0.129471 0.00118929 0)
(-0.131213 0.000224926 0)
(-0.130232 -0.00088091 0)
(-0.125986 -0.00227687 0)
(-0.117624 -0.00405573 0)
(-0.104218 -0.0061759 0)
(-0.0852195 -0.00834942 0)
(-0.061239 -0.00992025 0)
(-0.0348699 -0.00987051 0)
(-0.0111419 -0.00701442 0)
(-0.000362704 -0.00059388 0)
(-0.0020919 0.00367197 0)
(-0.0182247 0.0162095 0)
(-0.049485 0.0221808 0)
(-0.083781 0.0227521 0)
(-0.115769 0.0201541 0)
(-0.142598 0.0162671 0)
(-0.163454 0.0122793 0)
(-0.178708 0.00872905 0)
(-0.18912 0.00570987 0)
(-0.195359 0.00304562 0)
(-0.197722 0.000412879 0)
(-0.195996 -0.00257133 0)
(-0.189436 -0.00626288 0)
(-0.176882 -0.0108663 0)
(-0.157087 -0.0162428 0)
(-0.129339 -0.02165 0)
(-0.0944937 -0.0254894 0)
(-0.056051 -0.0253502 0)
(-0.0206357 -0.0186143 0)
(-0.00235525 -0.00427079 0)
(-0.00401853 0.009479 0)
(-0.0266151 0.0308612 0)
(-0.0669974 0.0409858 0)
(-0.110034 0.0417495 0)
(-0.149643 0.0369508 0)
(-0.182634 0.0298591 0)
(-0.20817 0.0225629 0)
(-0.226771 0.0160269 0)
(-0.23939 0.0104271 0)
(-0.246848 0.00545615 0)
(-0.249517 0.000543213 0)
(-0.247164 -0.00498567 0)
(-0.238927 -0.0117504 0)
(-0.223449 -0.0200976 0)
(-0.19924 -0.0297688 0)
(-0.16538 -0.0394597 0)
(-0.122692 -0.0464057 0)
(-0.0749888 -0.0464518 0)
(-0.0297195 -0.0351271 0)
(-0.00442831 -0.0107739 0)
(-0.00585285 0.0176822 0)
(-0.034413 0.0493431 0)
(-0.0826388 0.0637322 0)
(-0.132386 0.0642257 0)
(-0.177251 0.0565621 0)
(-0.214104 0.0455922 0)
(-0.242337 0.0343884 0)
(-0.262727 0.0243635 0)
(-0.276435 0.0157631 0)
(-0.284424 0.00811939 0)
(-0.287145 0.000577906 0)
(-0.284374 -0.00786421 0)
(-0.275201 -0.0181281 0)
(-0.258142 -0.0307362 0)
(-0.231494 -0.0453343 0)
(-0.194022 -0.0600509 0)
(-0.146206 -0.070882 0)
(-0.0916473 -0.0717088 0)
(-0.0380712 -0.0557493 0)
(-0.00638517 -0.0198436 0)
(-0.00759254 0.0280751 0)
(-0.0415917 0.071219 0)
(-0.0963874 0.0896208 0)
(-0.150879 0.0891144 0)
(-0.198702 0.0778452 0)
(-0.237172 0.0624084 0)
(-0.266158 0.0468758 0)
(-0.286808 0.0330728 0)
(-0.300518 0.0212722 0)
(-0.308391 0.0108099 0)
(-0.310954 0.000520835 0)
(-0.308029 -0.0109511 0)
(-0.298707 -0.0248582 0)
(-0.281435 -0.0419451 0)
(-0.254303 -0.0618301 0)
(-0.215652 -0.0821507 0)
(-0.165313 -0.0976873 0)
(-0.106181 -0.100184 0)
(-0.0457746 -0.0799715 0)
(-0.00825963 -0.0312463 0)
(-0.00932957 0.040501 0)
(-0.0483022 0.0960594 0)
(-0.108314 0.117871 0)
(-0.165499 0.115384 0)
(-0.213939 0.0997 0)
(-0.251782 0.0792929 0)
(-0.279609 0.0591849 0)
(-0.299037 0.0415248 0)
(-0.311715 0.0265406 0)
(-0.318872 0.01333 0)
(-0.321109 0.000397072 0)
(-0.318314 -0.0139797 0)
(-0.309628 -0.0314084 0)
(-0.293487 -0.0529131 0)
(-0.267791 -0.0781922 0)
(-0.23037 -0.104543 0)
(-0.180136 -0.125646 0)
(-0.118785 -0.130983 0)
(-0.0530888 -0.107324 0)
(-0.0101872 -0.0448404 0)
(-0.0112177 0.054893 0)
(-0.0547974 0.123403 0)
(-0.118504 0.147606 0)
(-0.176124 0.141911 0)
(-0.222706 0.120969 0)
(-0.257642 0.0952112 0)
(-0.282438 0.0704814 0)
(-0.299237 0.0491079 0)
(-0.309925 0.0311759 0)
(-0.315825 0.0154989 0)
(-0.317595 0.000240244 0)
(-0.315203 -0.0166857 0)
(-0.307891 -0.0372565 0)
(-0.294149 -0.0628377 0)
(-0.271741 -0.0933471 0)
(-0.237958 -0.125962 0)
(-0.190574 -0.153484 0)
(-0.129592 -0.163103 0)
(-0.0603463 -0.137311 0)
(-0.012364 -0.0606111 0)
(-0.0134651 0.0713086 0)
(-0.0613868 0.152752 0)
(-0.126974 0.177817 0)
(-0.182441 0.167451 0)
(-0.224493 0.140435 0)
(-0.254202 0.109123 0)
(-0.274156 0.0799605 0)
(-0.287027 0.0552518 0)
(-0.294874 0.034822 0)
(-0.299048 0.0171572 0)
(-0.300234 8.38155e-05 0)
(-0.298481 -0.0188278 0)
(-0.293184 -0.0419221 0)
(-0.282977 -0.0709609 0)
(-0.265592 -0.106238 0)
(-0.237834 -0.145095 0)
(-0.196214 -0.179804 0)
(-0.138556 -0.195386 0)
(-0.0678863 -0.16939 0)
(-0.0150324 -0.0786947 0)
(-0.0163373 0.089958 0)
(-0.0683969 0.183532 0)
(-0.133571 0.207305 0)
(-0.183838 0.190607 0)
(-0.218454 0.156813 0)
(-0.240602 0.120003 0)
(-0.254027 0.0868717 0)
(-0.261832 0.0594507 0)
(-0.266131 0.0371752 0)
(-0.268208 0.0181718 0)
(-0.268713 -4.59296e-05 0)
(-0.267777 -0.0202073 0)
(-0.264996 -0.044996 0)
(-0.259259 -0.0766046 0)
(-0.248431 -0.11586 0)
(-0.228998 -0.160598 0)
(-0.196224 -0.203054 0)
(-0.145333 -0.226445 0)
(-0.0759898 -0.202895 0)
(-0.0184758 -0.0993912 0)
(-0.0201566 0.111228 0)
(-0.0761057 0.215004 0)
(-0.137808 0.234597 0)
(-0.179251 0.209792 0)
(-0.20331 0.168766 0)
(-0.215632 0.126865 0)
(-0.221048 0.0905532 0)
(-0.22289 0.0612903 0)
(-0.223135 0.0380009 0)
(-0.222864 0.0184422 0)
(-0.222621 -0.000134182 0)
(-0.222603 -0.020684 0)
(-0.222653 -0.0461696 0)
(-0.222044 -0.0792128 0)
(-0.218997 -0.121301 0)
(-0.209982 -0.171121 0)
(-0.189226 -0.221507 0)
(-0.149109 -0.25457 0)
(-0.0847829 -0.236924 0)
(-0.0230034 -0.123163 0)
(-0.0252739 0.13569 0)
(-0.0846102 0.246121 0)
(-0.13863 0.257829 0)
(-0.166952 0.223209 0)
(-0.177217 0.174939 0)
(-0.177672 0.128826 0)
(-0.173951 0.0904814 0)
(-0.169273 0.0604848 0)
(-0.16522 0.0371567 0)
(-0.162509 0.0179111 0)
(-0.161493 -0.000178868 0)
(-0.162404 -0.0201907 0)
(-0.165376 -0.0452659 0)
(-0.170195 -0.0784018 0)
(-0.175708 -0.121816 0)
(-0.178803 -0.175379 0)
(-0.173146 -0.233282 0)
(-0.148372 -0.277633 0)
(-0.0940624 -0.270156 0)
(-0.0288935 -0.150604 0)
(-0.0319626 0.164068 0)
(-0.0935459 0.275305 0)
(-0.134025 0.274628 0)
(-0.144269 0.228873 0)
(-0.137628 0.174048 0)
(-0.124656 0.125191 0)
(-0.111215 0.0863413 0)
(-0.0999234 0.0569222 0)
(-0.0916633 0.0346188 0)
(-0.0866169 0.0165774 0)
(-0.0848565 -0.00018881 0)
(-0.0866209 -0.0187435 0)
(-0.0923508 -0.0422685 0)
(-0.10246 -0.0740194 0)
(-0.116702 -0.116922 0)
(-0.132933 -0.17227 0)
(-0.145041 -0.236414 0)
(-0.140577 -0.293011 0)
(-0.10297 -0.300622 0)
(-0.0362382 -0.182345 0)
(-0.0401254 0.197061 0)
(-0.101518 0.300109 0)
(-0.12044 0.282027 0)
(-0.10724 0.22473 0)
(-0.0811706 0.165047 0)
(-0.0540727 0.115594 0)
(-0.0311175 0.0781159 0)
(-0.0137185 0.0507165 0)
(-0.00174431 0.0305097 0)
(0.00530451 0.0145099 0)
(0.00770468 -0.000178847 0)
(0.00524841 -0.0164478 0)
(-0.00280735 -0.0373472 0)
(-0.0175662 -0.0662078 0)
(-0.0399282 -0.106517 0)
(-0.0693127 -0.161059 0)
(-0.100919 -0.229039 0)
(-0.121683 -0.297595 0)
(-0.109403 -0.325384 0)
(-0.0445714 -0.218789 0)
(-0.0485649 0.234902 0)
(-0.104983 0.316779 0)
(-0.0919165 0.276484 0)
(-0.0502378 0.208917 0)
(-0.00358996 0.147394 0)
(0.0369555 0.100174 0)
(0.0681566 0.0661882 0)
(0.0904322 0.0422583 0)
(0.105176 0.0251222 0)
(0.113646 0.0118588 0)
(0.116496 -0.000163294 0)
(0.113579 -0.013497 0)
(0.103892 -0.0308734 0)
(0.0856614 -0.0554593 0)
(0.0567173 -0.0910182 0)
(0.0155572 -0.141629 0)
(-0.0356011 -0.209719 0)
(-0.0855483 -0.287941 0)
(-0.108972 -0.340196 0)
(-0.0520417 -0.259568 0)
(-0.0532951 0.276516 0)
(-0.0961728 0.319695 0)
(-0.0389505 0.254078 0)
(0.0343208 0.180225 0)
(0.100143 0.121409 0)
(0.151462 0.0797831 0)
(0.188322 0.0514306 0)
(0.213442 0.0322462 0)
(0.229553 0.0189263 0)
(0.238625 0.00885854 0)
(0.241649 -0.000149523 0)
(0.238554 -0.0101624 0)
(0.228162 -0.0234147 0)
(0.208158 -0.0426456 0)
(0.175187 -0.0714839 0)
(0.125414 -0.114771 0)
(0.0573041 -0.177903 0)
(-0.0232037 -0.260647 0)
(-0.0932769 -0.33921 0)
(-0.0536844 -0.302689 0)
(-0.0438335 0.317925 0)
(-0.0595645 0.300895 0)
(0.0527758 0.211179 0)
(0.155973 0.138842 0)
(0.235433 0.0887235 0)
(0.292239 0.0561647 0)
(0.330702 0.035252 0)
(0.35586 0.0216783 0)
(0.371545 0.0125497 0)
(0.380216 0.00581545 0)
(0.383072 -0.00013475 0)
(0.380112 -0.00677207 0)
(0.370107 -0.0157044 0)
(0.350469 -0.0290038 0)
(0.317025 -0.0496903 0)
(0.263876 -0.0825032 0)
(0.185187 -0.134607 0)
(0.0778364 -0.213137 0)
(-0.0472465 -0.314816 0)
(-0.0380076 -0.342873 0)
(0.00502952 0.346132 0)
(0.0337151 0.250757 0)
(0.203243 0.147483 0)
(0.32546 0.0882197 0)
(0.407168 0.0530794 0)
(0.461186 0.0322295 0)
(0.495837 0.0196518 0)
(0.517651 0.011836 0)
(0.530895 0.00674949 0)
(0.538086 0.00308819 0)
(0.540411 -0.000110157 0)
(0.537909 -0.00369967 0)
(0.529465 -0.00862096 0)
(0.512613 -0.0161411 0)
(0.483064 -0.0282706 0)
(0.433898 -0.0486283 0)
(0.35579 -0.0839734 0)
(0.233946 -0.146405 0)
(0.0550403 -0.25844 0)
(0.019949 -0.365105 0)
(0.153137 0.318154 0)
(0.23567 0.16432 0)
(0.437195 0.0743603 0)
(0.551983 0.0389708 0)
(0.617863 0.0217365 0)
(0.658299 0.0125271 0)
(0.682968 0.00736945 0)
(0.697948 0.00432518 0)
(0.706816 0.0024181 0)
(0.711541 0.00108317 0)
(0.713024 -7.18844e-05 0)
(0.711299 -0.00138551 0)
(0.70555 -0.00323323 0)
(0.69392 -0.00614273 0)
(0.673006 -0.0110239 0)
(0.636782 -0.019739 0)
(0.575418 -0.0364424 0)
(0.464801 -0.0724664 0)
(0.259015 -0.166354 0)
(0.174995 -0.3256 0)
(0.541589 0.141273 0)
(0.63704 0.0564645 0)
(0.777423 0.0191076 0)
(0.836556 0.00832964 0)
(0.864385 0.00416257 0)
(0.880236 0.00221139 0)
(0.889423 0.00122608 0)
(0.89479 0.000687717 0)
(0.897879 0.000370096 0)
(0.899485 0.000157423 0)
(0.899957 -2.49838e-05 0)
(0.899298 -0.000239477 0)
(0.897175 -0.000556027 0)
(0.892835 -0.00107811 0)
(0.88485 -0.00200235 0)
(0.870507 -0.00378765 0)
(0.844751 -0.00762609 0)
(0.789128 -0.0179978 0)
(0.647876 -0.0553514 0)
(0.553077 -0.140822 0)
)
;

boundaryField
{
    movingWall
    {
        type            fixedValue;
        value           uniform (1 0 0);
    }
    fixedWalls
    {
        type            noSlip;
    }
    frontAndBack
    {
        type            empty;
    }
}


// ************************************************************************* //
