/*--------------------------------*- C++ -*----------------------------------*\
  =========                 |
  \\      /  F ield         | OpenFOAM: The Open Source CFD Toolbox
   \\    /   O peration     | Website:  https://openfoam.org
    \\  /    A nd           | Version:  7
     \\/     M anipulation  |
\*---------------------------------------------------------------------------*/
FoamFile
{
    version     2.0;
    format      ascii;
    class       volScalarField;
    location    "0.3";
    object      p;
}
// * * * * * * * * * * * * * * * * * * * * * * * * * * * * * * * * * * * * * //

dimensions      [0 2 -2 0 0 0 0];

internalField   nonuniform List<scalar> 
400
(
-1.59392e-08
-0.000367636
-0.000712442
-0.00109758
-0.00153565
-0.00202931
-0.00256606
-0.00312458
-0.00367177
-0.00414901
-0.00444531
-0.00434328
-0.00340096
-0.000702835
0.0054081
0.0167641
0.0329824
0.0485882
0.0555075
0.0511008
5.73454e-05
-0.000275002
-0.00057967
-0.000949394
-0.00137964
-0.00186315
-0.00238182
-0.00290868
-0.0034027
-0.00379499
-0.00396635
-0.00370944
-0.0026523
-5.36766e-05
0.00554756
0.0160324
0.0313402
0.0465341
0.0536888
0.0500209
0.000168581
-0.000172892
-0.000450955
-0.000808605
-0.00123413
-0.00171327
-0.00222309
-0.00273321
-0.00320012
-0.00355647
-0.00369955
-0.00347917
-0.00266032
-0.000701738
0.0038092
0.0131701
0.0280086
0.0436887
0.051793
0.0489766
0.000303491
-7.45703e-05
-0.000335615
-0.000686106
-0.00111158
-0.00159272
-0.00210299
-0.00261126
-0.00307797
-0.00345176
-0.00367648
-0.00371409
-0.00353859
-0.00283542
-0.000125766
0.00756039
0.0218559
0.0386625
0.0487527
0.0480014
0.000432776
4.51425e-06
-0.000245395
-0.000594181
-0.00102452
-0.00151273
-0.00202985
-0.00254665
-0.00303395
-0.00347112
-0.00387943
-0.00438646
-0.00523856
-0.00637355
-0.00619658
-0.000933581
0.0123178
0.0304663
0.0436676
0.0469187
0.000521429
3.87042e-05
-0.000204238
-0.000556305
-0.000995228
-0.00149333
-0.00202044
-0.00255197
-0.00307538
-0.00361476
-0.00429646
-0.00545673
-0.00765667
-0.0110994
-0.0140693
-0.0119686
-0.000423584
0.0188976
0.0360637
0.0451604
0.000534267
-2.14304e-06
-0.000239735
-0.000597481
-0.00104555
-0.00155252
-0.00208826
-0.00263528
-0.00320302
-0.00387128
-0.00489086
-0.00683146
-0.0105832
-0.0166057
-0.0230701
-0.0246244
-0.0154002
0.00456318
0.0258055
0.0418342
0.000436517
-0.000149313
-0.000378573
-0.000739491
-0.00119211
-0.0017015
-0.00223848
-0.00279444
-0.00340434
-0.00420956
-0.00559255
-0.00835716
-0.0137032
-0.0223083
-0.0322289
-0.0374844
-0.0309832
-0.0111543
0.0133505
0.0363517
0.000193147
-0.00043417
-0.000644988
-0.000999542
-0.00144539
-0.0019441
-0.00246777
-0.00301738
-0.00365461
-0.00458241
-0.00630851
-0.00984584
-0.0166499
-0.0275483
-0.040484
-0.0490065
-0.0453149
-0.026423
-6.84753e-05
0.0290405
-0.000232902
-0.000888068
-0.00105997
-0.00138971
-0.00180965
-0.00227738
-0.00276562
-0.00328436
-0.00392097
-0.00493465
-0.00694057
-0.0111134
-0.0190822
-0.0317375
-0.0469441
-0.0579366
-0.0568058
-0.0394279
-0.012671
0.0212514
-0.000884165
-0.00154298
-0.00164067
-0.00191651
-0.00228321
-0.00269274
-0.00311657
-0.00357166
-0.00416849
-0.00521378
-0.00740552
-0.0120191
-0.0207621
-0.0344906
-0.0510906
-0.0635832
-0.064493
-0.0487752
-0.0226218
0.0150555
-0.00181458
-0.00243262
-0.00239953
-0.00258021
-0.00285838
-0.00317696
-0.00350273
-0.00385624
-0.00436779
-0.00538149
-0.00765346
-0.0124963
-0.021607
-0.0356961
-0.052874
-0.0658975
-0.0681739
-0.0536946
-0.0285977
0.012968
-0.0030995
-0.00359348
-0.00334224
-0.0033727
-0.00352011
-0.00371199
-0.00390537
-0.00411965
-0.0045019
-0.0054234
-0.00767967
-0.0125635
-0.0216967
-0.0355217
-0.0526922
-0.0653506
-0.0682187
-0.0540626
-0.0300775
0.0177349
-0.00485302
-0.00506439
-0.00446272
-0.00427245
-0.00424154
-0.00427146
-0.00430299
-0.00434834
-0.00456929
-0.00535348
-0.00752689
-0.0123165
-0.0212543
-0.0346578
-0.0507991
-0.0627069
-0.0651166
-0.0505952
-0.0265543
0.0317524
-0.00726088
-0.0068808
-0.00573197
-0.00523359
-0.00497388
-0.00481117
-0.00466264
-0.00452605
-0.0045779
-0.00520846
-0.00727346
-0.0119
-0.0205264
-0.0332004
-0.0481685
-0.0588113
-0.0599929
-0.0437581
-0.0155674
0.0560995
-0.0106549
-0.0090532
-0.00707782
-0.00616681
-0.00562831
-0.00525188
-0.004923
-0.00461637
-0.0045262
-0.00502648
-0.00700342
-0.0114697
-0.0197586
-0.0316029
-0.0453188
-0.0542822
-0.0532171
-0.0326856
0.00447409
0.0923613
-0.0156941
-0.0115203
-0.00837057
-0.00691235
-0.00604924
-0.00545838
-0.00497607
-0.00454353
-0.00437584
-0.00481294
-0.00678206
-0.0111305
-0.0191164
-0.0301301
-0.0425142
-0.0493603
-0.0448063
-0.0167973
0.0350425
0.144916
-0.0236415
-0.0140864
-0.0093219
-0.00712153
-0.00593685
-0.0051921
-0.00463801
-0.00417256
-0.00403068
-0.0045138
-0.00657183
-0.010883
-0.0186252
-0.0288333
-0.0398525
-0.0442005
-0.0350385
0.00364038
0.076495
0.21802
-0.0355619
-0.0154524
-0.00813585
-0.00568422
-0.00458281
-0.00394986
-0.00354939
-0.00324383
-0.00327683
-0.00393922
-0.00617368
-0.0105359
-0.0181002
-0.0276003
-0.0373914
-0.0393298
-0.0256066
0.0250586
0.123452
0.308423
-0.0571182
-0.00808508
-0.000416072
-0.000986618
-0.001191
-0.00126454
-0.0014245
-0.00156995
-0.00195507
-0.00292073
-0.00537473
-0.00985197
-0.0173077
-0.0263409
-0.0352752
-0.0356185
-0.0196289
0.0393186
0.159635
0.391763
)
;

boundaryField
{
    movingWall
    {
        type            zeroGradient;
    }
    fixedWalls
    {
        type            zeroGradient;
    }
    frontAndBack
    {
        type            empty;
    }
}


// ************************************************************************* //
