/*--------------------------------*- C++ -*----------------------------------*\
  =========                 |
  \\      /  F ield         | OpenFOAM: The Open Source CFD Toolbox
   \\    /   O peration     | Website:  https://openfoam.org
    \\  /    A nd           | Version:  7
     \\/     M anipulation  |
\*---------------------------------------------------------------------------*/
FoamFile
{
    version     2.0;
    format      ascii;
    class       surfaceScalarField;
    location    "0.3";
    object      phi;
}
// * * * * * * * * * * * * * * * * * * * * * * * * * * * * * * * * * * * * * //

dimensions      [0 3 -1 0 0 0 0];

internalField   nonuniform List<scalar> 
760
(
9.2275e-09
-9.22629e-09
-1.33487e-08
2.25761e-08
-4.69134e-08
3.35646e-08
-8.30471e-08
3.61334e-08
-1.20839e-07
3.77921e-08
-1.62062e-07
4.12237e-08
-2.09516e-07
4.74531e-08
-2.67647e-07
5.81311e-08
-3.43912e-07
7.62649e-08
-4.50369e-07
1.06457e-07
-6.05393e-07
1.55024e-07
-8.3457e-07
2.29177e-07
-1.16609e-06
3.31521e-07
-1.60454e-06
4.38453e-07
-2.06391e-06
4.59362e-07
-2.30443e-06
2.40524e-07
-2.00992e-06
-2.94508e-07
-1.12408e-06
-8.85844e-07
-1.88068e-07
-9.36011e-07
-1.88068e-07
-1.0566e-08
1.33981e-09
-8.54015e-08
9.74109e-08
-1.89062e-07
1.37226e-07
-3.01357e-07
1.48428e-07
-4.18408e-07
1.54843e-07
-5.43669e-07
1.66484e-07
-6.84288e-07
1.88072e-07
-8.52173e-07
2.26015e-07
-1.06677e-06
2.90867e-07
-1.358e-06
3.97684e-07
-1.76725e-06
5.64273e-07
-2.34071e-06
8.02635e-07
-3.10118e-06
1.092e-06
-3.98076e-06
1.31804e-06
-4.73219e-06
1.21079e-06
-4.92527e-06
4.33601e-07
-4.16248e-06
-1.05729e-06
-2.46813e-06
-2.5802e-06
-6.49377e-07
-2.75476e-06
-8.37445e-07
-4.57265e-08
4.70663e-08
-1.81683e-07
2.33367e-07
-3.56306e-07
3.11849e-07
-5.42563e-07
3.34684e-07
-7.34561e-07
3.46842e-07
-9.36755e-07
3.68677e-07
-1.15959e-06
4.10902e-07
-1.42083e-06
4.87259e-07
-1.74887e-06
6.18904e-07
-2.1851e-06
8.33921e-07
-2.78106e-06
1.16023e-06
-3.58042e-06
1.60199e-06
-4.57186e-06
2.08344e-06
-5.61296e-06
2.35914e-06
-6.37811e-06
1.97594e-06
-6.42661e-06
4.82099e-07
-5.42962e-06
-2.05428e-06
-3.44047e-06
-4.56935e-06
-1.13733e-06
-5.0579e-06
-1.97478e-06
-8.77221e-08
1.34789e-07
-2.87328e-07
4.32971e-07
-5.30069e-07
5.54591e-07
-7.83573e-07
5.88188e-07
-1.04085e-06
6.04123e-07
-1.30717e-06
6.34991e-07
-1.59531e-06
6.99042e-07
-1.9271e-06
8.19052e-07
-2.33642e-06
1.02822e-06
-2.86986e-06
1.36736e-06
-3.57897e-06
1.86934e-06
-4.49369e-06
2.51671e-06
-5.5694e-06
3.15915e-06
-6.62548e-06
3.41522e-06
-7.33608e-06
2.68653e-06
-7.32498e-06
4.70997e-07
-6.32981e-06
-3.04945e-06
-4.32664e-06
-6.57253e-06
-1.70302e-06
-7.68152e-06
-3.6778e-06
-1.30718e-07
2.65506e-07
-3.92544e-07
6.94797e-07
-6.97399e-07
8.59446e-07
-1.00845e-06
8.99241e-07
-1.31835e-06
9.14018e-07
-1.63303e-06
9.49671e-07
-1.9667e-06
1.03271e-06
-2.34326e-06
1.19562e-06
-2.79862e-06
1.48358e-06
-3.37934e-06
1.94808e-06
-4.13119e-06
2.6212e-06
-5.06953e-06
3.45505e-06
-6.13109e-06
4.22071e-06
-7.13334e-06
4.41747e-06
-7.79232e-06
3.34552e-06
-7.80833e-06
4.87002e-07
-6.96045e-06
-3.89732e-06
-5.10838e-06
-8.4246e-06
-2.32396e-06
-1.04659e-05
-6.00176e-06
-1.72064e-07
4.3757e-07
-4.9184e-07
1.01457e-06
-8.50778e-07
1.21838e-06
-1.20818e-06
1.25664e-06
-1.55687e-06
1.26271e-06
-1.90333e-06
1.29613e-06
-2.26214e-06
1.39153e-06
-2.65728e-06
1.59075e-06
-3.12347e-06
1.94978e-06
-3.70339e-06
2.52799e-06
-4.43471e-06
3.35252e-06
-5.32216e-06
4.3425e-06
-6.29868e-06
5.19723e-06
-7.20182e-06
5.32061e-06
-7.80201e-06
3.94571e-06
-7.87082e-06
5.55811e-07
-7.22596e-06
-4.54219e-06
-5.63345e-06
-1.00171e-05
-2.89371e-06
-1.32057e-05
-8.89547e-06
-2.1097e-07
6.4854e-07
-5.83192e-07
1.38679e-06
-9.87344e-07
1.62254e-06
-1.3796e-06
1.6489e-06
-1.75347e-06
1.63658e-06
-2.11575e-06
1.6584e-06
-2.48032e-06
1.7561e-06
-2.86918e-06
1.9796e-06
-3.3131e-06
2.3937e-06
-3.84805e-06
3.06295e-06
-4.50298e-06
4.00745e-06
-5.27622e-06
5.11573e-06
-6.10699e-06
6.028e-06
-6.86303e-06
6.07665e-06
-7.37087e-06
4.45356e-06
-7.47475e-06
6.5969e-07
-7.0456e-06
-4.97135e-06
-5.79155e-06
-1.12712e-05
-3.28469e-06
-1.57125e-05
-1.21802e-05
-2.48011e-07
8.96552e-07
-6.67257e-07
1.80604e-06
-1.10782e-06
2.06309e-06
-1.52391e-06
2.06499e-06
-1.91035e-06
2.02302e-06
-2.27398e-06
2.02203e-06
-2.62692e-06
2.10905e-06
-2.98723e-06
2.33992e-06
-3.37929e-06
2.78576e-06
-3.8303e-06
3.51395e-06
-4.36023e-06
4.53739e-06
-4.96421e-06
5.71971e-06
-5.59391e-06
6.6577e-06
-6.15323e-06
6.63596e-06
-6.5285e-06
4.82883e-06
-6.64139e-06
7.72578e-07
-6.42956e-06
-5.18317e-06
-5.56752e-06
-1.21332e-05
-3.42248e-06
-1.78576e-05
-1.56026e-05
-2.84844e-07
1.1814e-06
-7.46662e-07
2.26786e-06
-1.21533e-06
2.53176e-06
-1.64499e-06
2.49465e-06
-2.03262e-06
2.41065e-06
-2.38498e-06
2.37439e-06
-2.71144e-06
2.43551e-06
-3.02444e-06
2.65292e-06
-3.3399e-06
3.10121e-06
-3.67462e-06
3.84868e-06
-4.03969e-06
4.90245e-06
-4.42942e-06
6.10944e-06
-4.81261e-06
7.04089e-06
-5.135e-06
6.95835e-06
-5.34994e-06
5.04377e-06
-5.4544e-06
8.77044e-07
-5.45627e-06
-5.1813e-06
-5.01362e-06
-1.25759e-05
-3.32019e-06
-1.9551e-05
-1.89228e-05
-3.24072e-07
1.50547e-06
-8.25435e-07
2.76922e-06
-1.31432e-06
3.02065e-06
-1.74777e-06
2.9281e-06
-2.12619e-06
2.78907e-06
-2.45635e-06
2.70456e-06
-2.74417e-06
2.72333e-06
-2.99527e-06
2.90401e-06
-3.21562e-06
3.32157e-06
-3.41054e-06
4.04359e-06
-3.58246e-06
5.07438e-06
-3.72703e-06
6.25401e-06
-3.8345e-06
7.14836e-06
-3.89715e-06
7.021e-06
-3.94258e-06
5.0892e-06
-4.03132e-06
9.65787e-07
-4.23334e-06
-4.97928e-06
-4.21211e-06
-1.25971e-05
-3.02517e-06
-2.07379e-05
-2.1948e-05
-3.6931e-07
1.87478e-06
-9.08603e-07
3.30851e-06
-1.40957e-06
3.52161e-06
-1.83662e-06
3.35515e-06
-2.19549e-06
3.14795e-06
-2.49342e-06
3.00248e-06
-2.73279e-06
2.9627e-06
-2.91193e-06
3.08315e-06
-3.02628e-06
3.43592e-06
-3.06904e-06
4.08635e-06
-3.0344e-06
5.03974e-06
-2.92081e-06
6.14042e-06
-2.74353e-06
6.97108e-06
-2.54255e-06
6.82002e-06
-2.42494e-06
4.9716e-06
-2.49587e-06
1.03672e-06
-2.87043e-06
-4.60472e-06
-3.24483e-06
-1.22227e-05
-2.58782e-06
-2.13949e-05
-2.45358e-05
-4.25494e-07
2.30027e-06
-1.00193e-06
3.88495e-06
-1.50503e-06
4.02472e-06
-1.91343e-06
3.76355e-06
-2.24074e-06
3.47525e-06
-2.49562e-06
3.25736e-06
-2.67777e-06
3.14486e-06
-2.77889e-06
3.18427e-06
-2.78453e-06
3.44157e-06
-2.67585e-06
3.97766e-06
-2.439e-06
4.80288e-06
-2.0749e-06
5.77632e-06
-1.62557e-06
6.52175e-06
-1.17414e-06
6.36859e-06
-9.11754e-07
4.70921e-06
-9.61852e-07
1.08681e-06
-1.46257e-06
-4.104e-06
-2.16993e-06
-1.15153e-05
-2.05163e-06
-2.15132e-05
-2.65875e-05
-4.99542e-07
2.79981e-06
-1.11164e-06
4.49704e-06
-1.60236e-06
4.51544e-06
-1.97474e-06
4.13594e-06
-2.25355e-06
3.75405e-06
-2.45059e-06
3.4544e-06
-2.56481e-06
3.25907e-06
-2.58348e-06
3.20294e-06
-2.4846e-06
3.34269e-06
-2.23841e-06
3.73147e-06
-1.8231e-06
4.38757e-06
-1.23877e-06
5.19199e-06
-5.52635e-07
5.83562e-06
7.45743e-08
5.74138e-06
5.06682e-07
4.2771e-06
4.84999e-07
1.1085e-06
-3.55303e-08
-3.58347e-06
-1.02655e-06
-1.05243e-05
-1.42943e-06
-2.11104e-05
-2.80169e-05
-6.01619e-07
3.40143e-06
-1.24375e-06
5.13918e-06
-1.69772e-06
4.9694e-06
-2.00597e-06
4.4442e-06
-2.20874e-06
3.95681e-06
-2.32343e-06
3.5691e-06
-2.35152e-06
3.28716e-06
-2.2795e-06
3.13092e-06
-2.08221e-06
3.1454e-06
-1.72167e-06
3.37093e-06
-1.1688e-06
3.83471e-06
-4.17093e-07
4.44028e-06
4.56736e-07
4.96179e-06
1.30749e-06
4.89063e-06
1.84857e-06
3.73602e-06
1.87477e-06
1.0823e-06
1.2813e-06
-2.99e-06
5.25105e-08
-9.29551e-06
-6.01136e-07
-2.04567e-05
-2.8618e-05
-7.4749e-07
4.14892e-06
-1.40138e-06
5.79307e-06
-1.77337e-06
5.34139e-06
-1.96748e-06
4.63831e-06
-2.04575e-06
4.03508e-06
-2.03475e-06
3.5581e-06
-1.9425e-06
3.19491e-06
-1.75913e-06
2.94755e-06
-1.46185e-06
2.84812e-06
-1.00915e-06
2.91823e-06
-3.66376e-07
3.19194e-06
4.83997e-07
3.58991e-06
1.46793e-06
3.97785e-06
2.43805e-06
3.92051e-06
3.10106e-06
3.07301e-06
3.20949e-06
9.73866e-07
2.69541e-06
-2.47591e-06
1.52109e-06
-8.12119e-06
3.18965e-07
-1.92546e-05
-2.82991e-05
-9.61551e-07
5.11047e-06
-1.57298e-06
6.40449e-06
-1.77066e-06
5.53908e-06
-1.7554e-06
4.62304e-06
-1.62297e-06
3.90265e-06
-1.41269e-06
3.34781e-06
-1.14163e-06
2.92385e-06
-8.06069e-07
2.61199e-06
-3.89044e-07
2.43109e-06
1.50425e-07
2.37876e-06
8.41663e-07
2.5007e-06
1.72063e-06
2.71094e-06
2.73497e-06
2.96352e-06
3.75071e-06
2.90477e-06
4.50974e-06
2.31398e-06
4.7235e-06
7.60105e-07
4.32088e-06
-2.07329e-06
3.10534e-06
-6.90566e-06
1.23115e-06
-1.73804e-05
-2.70679e-05
-1.26932e-06
6.37979e-06
-1.67722e-06
6.8124e-06
-1.49247e-06
5.35433e-06
-1.08635e-06
4.21693e-06
-6.03705e-07
3.42001e-06
-8.9411e-08
2.83352e-06
4.37649e-07
2.39679e-06
9.78552e-07
2.07109e-06
1.54713e-06
1.86252e-06
2.17792e-06
1.74797e-06
2.90802e-06
1.7706e-06
3.77127e-06
1.84769e-06
4.74955e-06
1.98523e-06
5.73314e-06
1.92118e-06
6.53087e-06
1.51626e-06
6.82857e-06
4.62402e-07
6.4903e-06
-1.73502e-06
5.13415e-06
-5.54951e-06
2.48011e-06
-1.47264e-05
-2.45878e-05
-1.60639e-06
7.98618e-06
-1.29336e-06
6.49936e-06
-2.61272e-07
4.32224e-06
8.05238e-07
3.15042e-06
1.78654e-06
2.43871e-06
2.68665e-06
1.93341e-06
3.51072e-06
1.57272e-06
4.27121e-06
1.3106e-06
4.99265e-06
1.14108e-06
5.70643e-06
1.03418e-06
6.45761e-06
1.01942e-06
7.27142e-06
1.03388e-06
8.1664e-06
1.09025e-06
9.05023e-06
1.03735e-06
9.79439e-06
7.72093e-07
1.00927e-05
1.64083e-07
9.68098e-06
-1.32328e-06
8.01825e-06
-3.88678e-06
4.31774e-06
-1.10259e-05
-2.02701e-05
-1.09099e-06
9.07718e-06
1.62746e-06
3.78091e-06
3.93842e-06
2.01128e-06
5.67432e-06
1.41452e-06
7.07172e-06
1.04131e-06
8.23133e-06
7.73801e-07
9.20879e-06
5.95258e-07
1.00453e-05
4.74052e-07
1.07878e-05
3.98577e-07
1.14695e-05
3.52553e-07
1.21453e-05
3.43533e-07
1.28312e-05
3.47981e-07
1.35612e-05
3.60251e-07
1.42637e-05
3.34895e-07
1.48317e-05
2.04118e-07
1.50193e-05
-2.35848e-08
1.4394e-05
-6.97902e-07
1.23551e-05
-1.84788e-06
7.21188e-06
-5.88267e-06
-1.30582e-05
9.07717e-06
1.28581e-05
1.48694e-05
1.62839e-05
1.73252e-05
1.8099e-05
1.86943e-05
1.91683e-05
1.95669e-05
1.99194e-05
2.0263e-05
2.0611e-05
2.09712e-05
2.13061e-05
2.15102e-05
2.14866e-05
2.07887e-05
1.89408e-05
1.30582e-05
)
;

boundaryField
{
    movingWall
    {
        type            calculated;
        value           uniform 0;
    }
    fixedWalls
    {
        type            calculated;
        value           uniform 0;
    }
    frontAndBack
    {
        type            empty;
        value           nonuniform 0();
    }
}


// ************************************************************************* //
