/*--------------------------------*- C++ -*----------------------------------*\
  =========                 |
  \\      /  F ield         | OpenFOAM: The Open Source CFD Toolbox
   \\    /   O peration     | Website:  https://openfoam.org
    \\  /    A nd           | Version:  7
     \\/     M anipulation  |
\*---------------------------------------------------------------------------*/
FoamFile
{
    version     2.0;
    format      ascii;
    class       volVectorField;
    location    "0.3";
    object      U;
}
// * * * * * * * * * * * * * * * * * * * * * * * * * * * * * * * * * * * * * //

dimensions      [0 1 -1 0 0 0 0];

internalField   nonuniform List<vector> 
400
(
(0.000374216 -0.00014819 0)
(0.000145937 0.000107767 0)
(-0.00115852 0.000183548 0)
(-0.0025841 0.00019569 0)
(-0.00405921 0.00020563 0)
(-0.00562166 0.000230902 0)
(-0.0073655 0.000275799 0)
(-0.00942873 0.0003503 0)
(-0.0120387 0.000475726 0)
(-0.0155756 0.000687875 0)
(-0.0206457 0.00104403 0)
(-0.0281612 0.00163327 0)
(-0.0393547 0.00256267 0)
(-0.0552697 0.00377968 0)
(-0.074606 0.00458075 0)
(-0.0902664 0.00336583 0)
(-0.0897063 -0.000961618 0)
(-0.0645212 -0.00661177 0)
(-0.0229944 -0.00741777 0)
(0.000506275 -0.000943949 0)
(0.000248957 -0.000217458 0)
(-0.00135294 0.000927297 0)
(-0.00536198 0.00137096 0)
(-0.00977037 0.0014874 0)
(-0.0143507 0.00155911 0)
(-0.019149 0.00169486 0)
(-0.0243832 0.00194003 0)
(-0.0304162 0.00236182 0)
(-0.0378481 0.00307877 0)
(-0.0476455 0.00427105 0)
(-0.0612523 0.00618142 0)
(-0.0805754 0.00906467 0)
(-0.107527 0.0129266 0)
(-0.142174 0.0166892 0)
(-0.178382 0.0169206 0)
(-0.20025 0.00842579 0)
(-0.188373 -0.0104002 0)
(-0.135675 -0.0308459 0)
(-0.0581826 -0.0329469 0)
(-0.00512024 -0.00808435 0)
(-0.000282567 0.000309395 0)
(-0.00376738 0.00300173 0)
(-0.0105874 0.0041425 0)
(-0.0179339 0.00447814 0)
(-0.0254924 0.00466664 0)
(-0.0333053 0.00499766 0)
(-0.0416774 0.00561564 0)
(-0.0511479 0.0067109 0)
(-0.0626064 0.00858881 0)
(-0.0774365 0.0116764 0)
(-0.09757 0.0164538 0)
(-0.125221 0.0231625 0)
(-0.161845 0.03098 0)
(-0.205443 0.0364246 0)
(-0.246127 0.0322041 0)
(-0.264982 0.0101665 0)
(-0.24406 -0.0295563 0)
(-0.18069 -0.0692836 0)
(-0.0903177 -0.0747905 0)
(-0.0129558 -0.025433 0)
(-0.000974024 0.00163964 0)
(-0.00655445 0.0063722 0)
(-0.0161734 0.00836123 0)
(-0.0262527 0.00894 0)
(-0.0364606 0.00923787 0)
(-0.0468446 0.00977648 0)
(-0.0577716 0.0108399 0)
(-0.0699064 0.0127874 0)
(-0.0843316 0.0161594 0)
(-0.102665 0.0216526 0)
(-0.127004 0.0299046 0)
(-0.159399 0.0408383 0)
(-0.200472 0.0522357 0)
(-0.24665 0.0577724 0)
(-0.286636 0.0467644 0)
(-0.302303 0.00954969 0)
(-0.279222 -0.0511712 0)
(-0.216566 -0.111041 0)
(-0.124488 -0.125318 0)
(-0.0232187 -0.0531566 0)
(-0.00170169 0.00382951 0)
(-0.00939388 0.0110112 0)
(-0.0216654 0.0138823 0)
(-0.034151 0.0146457 0)
(-0.0465581 0.0149817 0)
(-0.0589494 0.0156717 0)
(-0.071733 0.0171619 0)
(-0.0856438 0.0200041 0)
(-0.101853 0.0249853 0)
(-0.122038 0.0330396 0)
(-0.148215 0.0448374 0)
(-0.182072 0.0597393 0)
(-0.223564 0.0739163 0)
(-0.268552 0.0784182 0)
(-0.306215 0.0600939 0)
(-0.32075 0.00876111 0)
(-0.300633 -0.0708706 0)
(-0.244857 -0.151039 0)
(-0.157796 -0.180655 0)
(-0.0356404 -0.0927879 0)
(-0.0024117 0.00686877 0)
(-0.0121186 0.0168553 0)
(-0.0267986 0.0205634 0)
(-0.0412945 0.0213848 0)
(-0.0553975 0.0216315 0)
(-0.069193 0.0223579 0)
(-0.0831075 0.024178 0)
(-0.0978861 0.0278386 0)
(-0.114683 0.0343584 0)
(-0.135084 0.0448555 0)
(-0.160871 0.0599274 0)
(-0.19335 0.0782636 0)
(-0.232156 0.0944835 0)
(-0.273405 0.0974666 0)
(-0.30771 0.0723924 0)
(-0.321803 0.00902664 0)
(-0.306348 -0.0868815 0)
(-0.260246 -0.187003 0)
(-0.183414 -0.237455 0)
(-0.0476014 -0.145365 0)
(-0.00309211 0.0107107 0)
(-0.014672 0.0238038 0)
(-0.03147 0.0282363 0)
(-0.0475579 0.0289326 0)
(-0.0628522 0.0289156 0)
(-0.0774662 0.0295126 0)
(-0.0918191 0.0314939 0)
(-0.106604 0.0357847 0)
(-0.122857 0.0436019 0)
(-0.141947 0.0561916 0)
(-0.16533 0.0740178 0)
(-0.193978 0.0951087 0)
(-0.227499 0.112748 0)
(-0.262736 0.114138 0)
(-0.292069 0.0833891 0)
(-0.304764 0.0105034 0)
(-0.293838 -0.0983112 0)
(-0.258858 -0.216704 0)
(-0.196759 -0.291635 0)
(-0.0551036 -0.209034 0)
(-0.00376094 0.0153076 0)
(-0.0170813 0.0317434 0)
(-0.0357038 0.0367225 0)
(-0.0529741 0.0370631 0)
(-0.0689847 0.036571 0)
(-0.083882 0.0368308 0)
(-0.0980511 0.0387408 0)
(-0.112071 0.0433694 0)
(-0.126768 0.0520868 0)
(-0.143191 0.066217 0)
(-0.162409 0.0860724 0)
(-0.185112 0.109112 0)
(-0.211076 0.127582 0)
(-0.238118 0.127489 0)
(-0.260554 0.0923785 0)
(-0.270402 0.012769 0)
(-0.263683 -0.104816 0)
(-0.240684 -0.238467 0)
(-0.197266 -0.339667 0)
(-0.0555695 -0.278665 0)
(-0.00446068 0.0206355 0)
(-0.0194373 0.0405731 0)
(-0.0396147 0.0458503 0)
(-0.0576789 0.0455637 0)
(-0.07397 0.0443582 0)
(-0.0886765 0.0440418 0)
(-0.102126 0.045595 0)
(-0.114728 0.0501796 0)
(-0.12702 0.0592653 0)
(-0.139651 0.0742124 0)
(-0.15326 0.0951995 0)
(-0.1683 0.119264 0)
(-0.184848 0.137961 0)
(-0.201868 0.136596 0)
(-0.215814 0.0986401 0)
(-0.22176 0.0153492 0)
(-0.219237 -0.106433 0)
(-0.208368 -0.251405 0)
(-0.186835 -0.378938 0)
(-0.0492518 -0.348258 0)
(-0.00525771 0.0267138 0)
(-0.0218821 0.0502177 0)
(-0.043375 0.0554597 0)
(-0.0618564 0.0542363 0)
(-0.0780195 0.0520621 0)
(-0.0921117 0.0509122 0)
(-0.10439 0.0517875 0)
(-0.115054 0.0558801 0)
(-0.124299 0.0646998 0)
(-0.132311 0.07961 0)
(-0.139284 0.100703 0)
(-0.145466 0.124784 0)
(-0.151342 0.143104 0)
(-0.157161 0.140779 0)
(-0.161757 0.10172 0)
(-0.163362 0.0179258 0)
(-0.165192 -0.103468 0)
(-0.165651 -0.255341 0)
(-0.168239 -0.407755 0)
(-0.0378637 -0.413226 0)
(-0.006247 0.0336244 0)
(-0.0246051 0.0606323 0)
(-0.0471875 0.0653947 0)
(-0.0656866 0.0628864 0)
(-0.0813038 0.0594806 0)
(-0.0943733 0.057237 0)
(-0.105086 0.0571018 0)
(-0.113423 0.0602242 0)
(-0.119211 0.0680913 0)
(-0.122157 0.0820395 0)
(-0.121992 0.102147 0)
(-0.118788 0.125202 0)
(-0.113501 0.142585 0)
(-0.107723 0.1397 0)
(-0.102894 0.101494 0)
(-0.100149 0.0202852 0)
(-0.106433 -0.0965707 0)
(-0.116288 -0.250762 0)
(-0.14413 -0.425329 0)
(-0.0228521 -0.470402 0)
(-0.00756351 0.0415349 0)
(-0.0278476 0.0717967 0)
(-0.0512596 0.0754819 0)
(-0.0692863 0.071298 0)
(-0.0838601 0.0663989 0)
(-0.095442 0.0628165 0)
(-0.10419 0.0613588 0)
(-0.109896 0.0630544 0)
(-0.112054 0.069301 0)
(-0.109905 0.0813738 0)
(-0.102731 0.0994186 0)
(-0.090398 0.120431 0)
(-0.0743372 0.136381 0)
(-0.0573268 0.133389 0)
(-0.0436399 0.098088 0)
(-0.0366832 0.0221276 0)
(-0.0472619 -0.0869495 0)
(-0.0632858 -0.238713 0)
(-0.116488 -0.432071 0)
(-0.00494943 -0.517347 0)
(-0.00940317 0.0507319 0)
(-0.0319187 0.083696 0)
(-0.0557703 0.08549 0)
(-0.0726211 0.0791893 0)
(-0.085449 0.0725428 0)
(-0.0948906 0.06741 0)
(-0.101142 0.0643779 0)
(-0.10389 0.0642768 0)
(-0.102398 0.0683497 0)
(-0.0955172 0.0777566 0)
(-0.0821283 0.0927833 0)
(-0.0617962 0.11082 0)
(-0.0363131 0.124941 0)
(-0.00916045 0.122583 0)
(0.0123201 0.0912538 0)
(0.0234215 0.0230027 0)
(0.0093463 -0.0761154 0)
(-0.00852105 -0.220606 0)
(-0.0860964 -0.429842 0)
(0.0161339 -0.551748 0)
(-0.0120579 0.0616781 0)
(-0.0372213 0.0962727 0)
(-0.0607993 0.0950541 0)
(-0.0753283 0.0861327 0)
(-0.0852725 0.0774955 0)
(-0.0915023 0.0706513 0)
(-0.0943682 0.0658951 0)
(-0.0935859 0.0637887 0)
(-0.0883667 0.0653625 0)
(-0.0773176 0.0715763 0)
(-0.0590453 0.0828908 0)
(-0.0326461 0.0971803 0)
(3.98238e-05 0.109053 0)
(0.0350758 0.107633 0)
(0.0627895 0.081569 0)
(0.0786546 0.0231927 0)
(0.0626103 -0.0646726 0)
(0.0472994 -0.198993 0)
(-0.0519365 -0.420578 0)
(0.042119 -0.571607 0)
(-0.0159726 0.0751237 0)
(-0.04428 0.109319 0)
(-0.0661157 0.103542 0)
(-0.076262 0.0914117 0)
(-0.081313 0.080553 0)
(-0.0824524 0.0719094 0)
(-0.0803426 0.0654281 0)
(-0.0748761 0.0613419 0)
(-0.0654464 0.0604285 0)
(-0.0505756 0.0633322 0)
(-0.0288897 0.0706804 0)
(0.00120628 0.0807685 0)
(0.0378113 0.0899946 0)
(0.0780939 0.0889726 0)
(0.109933 0.0691938 0)
(0.131644 0.021605 0)
(0.115216 -0.053868 0)
(0.106307 -0.17484 0)
(-0.0101782 -0.401793 0)
(0.076107 -0.57669 0)
(-0.0218295 0.0923009 0)
(-0.0537005 0.12225 0)
(-0.0703935 0.109792 0)
(-0.0721103 0.0937233 0)
(-0.0685828 0.0804618 0)
(-0.0613999 0.070074 0)
(-0.0516605 0.0620917 0)
(-0.0394697 0.0563584 0)
(-0.0246287 0.0533813 0)
(-0.00556644 0.0533729 0)
(0.0185101 0.0571371 0)
(0.0503954 0.0630854 0)
(0.0872943 0.0694902 0)
(0.130002 0.0684544 0)
(0.162751 0.0544538 0)
(0.191315 0.0180034 0)
(0.174765 -0.0450332 0)
(0.173791 -0.151418 0)
(0.0425849 -0.372049 0)
(0.120197 -0.564978 0)
(-0.0305814 0.114904 0)
(-0.0655012 0.133445 0)
(-0.0678483 0.11106 0)
(-0.0528836 0.0903399 0)
(-0.0344223 0.0749058 0)
(-0.0140788 0.0632501 0)
(0.00684216 0.0544073 0)
(0.0283921 0.0477843 0)
(0.0502366 0.0436178 0)
(0.0745582 0.0416447 0)
(0.10065 0.0427764 0)
(0.133582 0.0453344 0)
(0.167704 0.0491107 0)
(0.210729 0.0478797 0)
(0.240075 0.0383875 0)
(0.274994 0.0128174 0)
(0.256358 -0.0371967 0)
(0.261764 -0.124136 0)
(0.113868 -0.324 0)
(0.178243 -0.527189 0)
(-0.042697 0.142664 0)
(-0.0722141 0.135902 0)
(-0.0338691 0.098844 0)
(0.0113498 0.0756722 0)
(0.0523707 0.0601829 0)
(0.0902392 0.0488722 0)
(0.124549 0.0405946 0)
(0.156555 0.034434 0)
(0.185442 0.0303734 0)
(0.215046 0.0278256 0)
(0.242254 0.0275813 0)
(0.275878 0.0281186 0)
(0.304945 0.029853 0)
(0.346777 0.0286931 0)
(0.368527 0.0224099 0)
(0.406462 0.0068618 0)
(0.381319 -0.0284899 0)
(0.386819 -0.0896685 0)
(0.217142 -0.252212 0)
(0.259257 -0.448964 0)
(-0.0699744 0.188659 0)
(0.00641585 0.107796 0)
(0.11526 0.0644027 0)
(0.19556 0.0465926 0)
(0.257293 0.0354706 0)
(0.308145 0.0273426 0)
(0.350171 0.0216279 0)
(0.38679 0.0175472 0)
(0.417128 0.0149056 0)
(0.44698 0.0131662 0)
(0.471224 0.0127208 0)
(0.501812 0.0126967 0)
(0.523393 0.0132008 0)
(0.559872 0.0125585 0)
(0.571565 0.00879416 0)
(0.605199 0.00117133 0)
(0.57044 -0.0183869 0)
(0.567357 -0.0496011 0)
(0.377436 -0.154608 0)
(0.382819 -0.313035 0)
(0.347455 0.12712 0)
(0.445896 0.0686253 0)
(0.554553 0.0357436 0)
(0.627396 0.0215714 0)
(0.675525 0.0141999 0)
(0.710681 0.00966252 0)
(0.737138 0.00681499 0)
(0.758606 0.00498749 0)
(0.775128 0.00387267 0)
(0.79099 0.00319169 0)
(0.803024 0.00293397 0)
(0.818906 0.00289068 0)
(0.82886 0.00291804 0)
(0.847533 0.00277536 0)
(0.849554 0.00158261 0)
(0.864321 -0.000563763 0)
(0.831059 -0.00611034 0)
(0.815582 -0.0144672 0)
(0.656881 -0.0443453 0)
(0.605208 -0.108398 0)
)
;

boundaryField
{
    movingWall
    {
        type            fixedValue;
        value           uniform (1 0 0);
    }
    fixedWalls
    {
        type            noSlip;
    }
    frontAndBack
    {
        type            empty;
    }
}


// ************************************************************************* //
