/*--------------------------------*- C++ -*----------------------------------*\
  =========                 |
  \\      /  F ield         | OpenFOAM: The Open Source CFD Toolbox
   \\    /   O peration     | Website:  https://openfoam.org
    \\  /    A nd           | Version:  7
     \\/     M anipulation  |
\*---------------------------------------------------------------------------*/
FoamFile
{
    version     2.0;
    format      ascii;
    class       volScalarField;
    location    "0.3";
    object      p;
}
// * * * * * * * * * * * * * * * * * * * * * * * * * * * * * * * * * * * * * //

dimensions      [0 2 -2 0 0 0 0];

internalField   nonuniform List<scalar> 
400
(
-5.11902e-08
-0.00339417
-0.00557354
-0.0066084
-0.00658535
-0.00563686
-0.00375462
-0.000763233
0.00366297
0.0100078
0.0189136
0.0311237
0.047296
0.0676021
0.0910976
0.115012
0.134638
0.144873
0.143628
0.133309
0.000655253
-0.00231849
-0.00399636
-0.00480115
-0.00470181
-0.00372506
-0.00180678
0.00124211
0.0057258
0.0120736
0.0208391
0.032649
0.0480434
0.0671302
0.0890434
0.111302
0.129713
0.139816
0.139901
0.131092
0.00165555
-0.00140667
-0.00275358
-0.00337634
-0.00321314
-0.0022299
-0.000323563
0.00270271
0.00712852
0.0133312
0.021793
0.0330693
0.0476649
0.065741
0.0865875
0.108012
0.126084
0.136499
0.137419
0.12837
0.0027311
-0.000789535
-0.00196909
-0.00247778
-0.00228212
-0.0013237
0.000520331
0.00344384
0.0076947
0.0135977
0.0215787
0.0321627
0.0458931
0.0630792
0.0832756
0.104572
0.123148
0.134482
0.136105
0.125706
0.00360418
-0.000541992
-0.00163685
-0.00208247
-0.00188625
-0.000978735
0.000769714
0.00353679
0.00752571
0.0129996
0.0203289
0.0300278
0.0427227
0.0589387
0.0785786
0.10009
0.119768
0.132722
0.135451
0.123458
0.00400642
-0.000830029
-0.00187979
-0.00229684
-0.00212027
-0.00127258
0.000371528
0.00295809
0.00662957
0.0115749
0.0181049
0.0267331
0.0381948
0.0532783
0.0723048
0.0941862
0.115432
0.130766
0.135308
0.121953
0.00367622
-0.00185451
-0.00286283
-0.00325799
-0.00309335
-0.0022829
-0.000717087
0.00170159
0.00503823
0.00939537
0.0150203
0.0224298
0.0324822
0.0462539
0.0645363
0.086813
0.109974
0.128459
0.135709
0.121618
0.00235208
-0.00382221
-0.00474263
-0.00507529
-0.004869
-0.00402826
-0.00247102
-0.000164897
0.00286349
0.00662187
0.0112919
0.0173959
0.025916
0.0382191
0.0555911
0.0781789
0.10346
0.125816
0.136799
0.123074
-0.0002388
-0.0069403
-0.00765365
-0.00781438
-0.00745099
-0.00645858
-0.00479396
-0.00250334
0.000286365
0.00348645
0.00721632
0.0120057
0.0189531
0.029698
0.0460106
0.0687592
0.0962219
0.123067
0.138877
0.127198
-0.00440057
-0.0114124
-0.0116948
-0.011483
-0.0107737
-0.00945332
-0.00752524
-0.00512088
-0.00246667
0.000260538
0.00312912
0.00668143
0.0121213
0.0213283
0.0365156
0.0592804
0.088878
0.120683
0.142425
0.135138
-0.0105037
-0.0174327
-0.0169104
-0.0160124
-0.0146913
-0.0128205
-0.0104487
-0.00778726
-0.00514861
-0.0027778
-0.000637272
0.00183895
0.00595062
0.01378
0.0279191
0.0506484
0.0822979
0.119387
0.148142
0.148299
-0.0190453
-0.0251757
-0.0232654
-0.0212368
-0.0189677
-0.0162988
-0.0133048
-0.0102542
-0.00751705
-0.00537504
-0.00379296
-0.00216416
0.000903178
0.00766073
0.021007
0.0438233
0.0775058
0.120112
0.156946
0.168321
-0.0307524
-0.0347754
-0.0306105
-0.0268696
-0.0232682
-0.0195628
-0.0158046
-0.0122746
-0.00935627
-0.00732733
-0.00612148
-0.00507069
-0.00268864
0.00342294
0.0164067
0.0396501
0.0755138
0.1239
0.169934
0.197126
-0.0467617
-0.0462779
-0.0386272
-0.0324717
-0.0271507
-0.0222295
-0.0176446
-0.0136187
-0.0104926
-0.00849545
-0.00749697
-0.0067484
-0.00466298
0.00129296
0.0144655
0.0386761
0.077098
0.131704
0.188214
0.237063
-0.0689416
-0.0595542
-0.0467563
-0.0374169
-0.0300607
-0.0238715
-0.0185241
-0.0140892
-0.0108046
-0.00881073
-0.00788902
-0.00719596
-0.00504519
0.00122974
0.0151615
0.0409932
0.0825688
0.144099
0.21258
0.291197
-0.100387
-0.074202
-0.0541702
-0.0408938
-0.0313608
-0.0240594
-0.0181845
-0.0135492
-0.0102384
-0.00828012
-0.00735962
-0.00654168
-0.00404846
0.0029129
0.0180618
0.0461141
0.0915986
0.16099
0.243214
0.363921
-0.145792
-0.089328
-0.0597023
-0.0419464
-0.0304145
-0.0224468
-0.0164749
-0.0119624
-0.00882734
-0.00699305
-0.00606488
-0.00503874
-0.00207086
0.00573654
0.022283
0.0528461
0.102823
0.181402
0.280664
0.461809
-0.211508
-0.101772
-0.0604759
-0.0390669
-0.026496
-0.0187309
-0.0133126
-0.0093442
-0.00663563
-0.00506238
-0.00419944
-0.00302165
0.00033236
0.00881366
0.026449
0.0590785
0.113279
0.202414
0.327202
0.593868
-0.307221
-0.101504
-0.0485153
-0.0291184
-0.0183358
-0.0123477
-0.00843269
-0.00554891
-0.00357309
-0.00245979
-0.00184652
-0.000766512
0.00258306
0.011113
0.0288606
0.0619501
0.118039
0.215938
0.374635
0.775208
-0.437383
-0.0778989
-0.0199171
-0.0114744
-0.00630629
-0.00383072
-0.00228056
-0.000912382
0.000101365
0.000586466
0.000745227
0.00140808
0.00425186
0.0120434
0.0287304
0.0602883
0.114604
0.214285
0.402205
0.976678
)
;

boundaryField
{
    movingWall
    {
        type            zeroGradient;
    }
    fixedWalls
    {
        type            zeroGradient;
    }
    frontAndBack
    {
        type            empty;
    }
}


// ************************************************************************* //
