/*--------------------------------*- C++ -*----------------------------------*\
  =========                 |
  \\      /  F ield         | OpenFOAM: The Open Source CFD Toolbox
   \\    /   O peration     | Website:  https://openfoam.org
    \\  /    A nd           | Version:  7
     \\/     M anipulation  |
\*---------------------------------------------------------------------------*/
FoamFile
{
    version     2.0;
    format      ascii;
    class       surfaceScalarField;
    location    "0.3";
    object      phi;
}
// * * * * * * * * * * * * * * * * * * * * * * * * * * * * * * * * * * * * * //

dimensions      [0 3 -1 0 0 0 0];

internalField   nonuniform List<scalar> 
760
(
9.93472e-09
-9.933e-09
-5.83997e-08
6.83344e-08
-1.62811e-07
1.04411e-07
-2.78652e-07
1.1584e-07
-3.96652e-07
1.18e-07
-5.16174e-07
1.19521e-07
-6.40104e-07
1.2393e-07
-7.71948e-07
1.31844e-07
-9.14148e-07
1.422e-07
-1.06616e-06
1.52009e-07
-1.22172e-06
1.55565e-07
-1.36543e-06
1.43713e-07
-1.46955e-06
1.04115e-07
-1.49372e-06
2.41758e-08
-1.39201e-06
-1.01714e-07
-1.13359e-06
-2.58421e-07
-7.3699e-07
-3.966e-07
-3.01193e-07
-4.35797e-07
-8.80884e-10
-3.00312e-07
-8.80925e-10
-3.68309e-08
2.68978e-08
-2.33701e-07
2.65204e-07
-5.17802e-07
3.88512e-07
-8.34549e-07
4.32587e-07
-1.15933e-06
4.42784e-07
-1.48742e-06
4.47604e-07
-1.82317e-06
4.59684e-07
-2.17279e-06
4.81466e-07
-2.53917e-06
5.0858e-07
-2.91663e-06
5.29468e-07
-3.28465e-06
5.23588e-07
-3.60142e-06
4.60482e-07
-3.79996e-06
3.02652e-07
-3.79254e-06
1.67557e-08
-3.49002e-06
-4.04234e-07
-2.84459e-06
-9.0385e-07
-1.91102e-06
-1.33017e-06
-8.99815e-07
-1.44701e-06
-1.60003e-07
-1.04012e-06
-1.60883e-07
-1.09499e-07
1.36397e-07
-4.38452e-07
5.94157e-07
-8.86291e-07
8.3635e-07
-1.3789e-06
9.25198e-07
-1.88092e-06
9.44798e-07
-2.38353e-06
9.50212e-07
-2.89061e-06
9.66771e-07
-3.40853e-06
9.99379e-07
-3.9383e-06
1.03836e-06
-4.4681e-06
1.05927e-06
-4.96529e-06
1.02078e-06
-5.36971e-06
8.64899e-07
-5.59186e-06
5.24803e-07
-5.52161e-06
-5.34916e-08
-5.05464e-06
-8.71202e-07
-4.14013e-06
-1.81836e-06
-2.84897e-06
-2.62133e-06
-1.43835e-06
-2.85763e-06
-3.49317e-07
-2.12916e-06
-5.102e-07
-1.90613e-07
3.2701e-07
-6.53878e-07
1.05742e-06
-1.25316e-06
1.43563e-06
-1.89832e-06
1.57036e-06
-2.54664e-06
1.59311e-06
-3.18637e-06
1.58994e-06
-3.82049e-06
1.60089e-06
-4.45459e-06
1.63348e-06
-5.08755e-06
1.67132e-06
-5.70294e-06
1.67465e-06
-6.26097e-06
1.57881e-06
-6.69304e-06
1.29696e-06
-6.90212e-06
7.33892e-07
-6.7735e-06
-1.82115e-07
-6.20017e-06
-1.44453e-06
-5.12635e-06
-2.89218e-06
-3.61278e-06
-4.1349e-06
-1.9161e-06
-4.5543e-06
-5.28872e-07
-3.51639e-06
-1.03907e-06
-2.73508e-07
6.00518e-07
-8.68951e-07
1.65286e-06
-1.60601e-06
2.17269e-06
-2.37909e-06
2.34344e-06
-3.14045e-06
2.35447e-06
-3.87696e-06
2.32645e-06
-4.59123e-06
2.31517e-06
-5.28855e-06
2.3308e-06
-5.96693e-06
2.34969e-06
-6.60858e-06
2.31631e-06
-7.17293e-06
2.14317e-06
-7.59273e-06
1.71676e-06
-7.77573e-06
9.16891e-07
-7.61396e-06
-3.43888e-07
-7.00268e-06
-2.05581e-06
-5.87327e-06
-4.02159e-06
-4.25177e-06
-5.7564e-06
-2.35681e-06
-6.44926e-06
-7.05306e-07
-5.16789e-06
-1.74438e-06
-3.55426e-07
9.55945e-07
-1.07688e-06
2.37432e-06
-1.93487e-06
3.03068e-06
-2.80839e-06
3.21696e-06
-3.64679e-06
3.19287e-06
-4.43739e-06
3.11705e-06
-5.18382e-06
3.0616e-06
-5.89243e-06
3.03941e-06
-6.56267e-06
3.01993e-06
-7.17945e-06
2.93309e-06
-7.70768e-06
2.6714e-06
-8.08987e-06
2.09895e-06
-8.24758e-06
1.0746e-06
-8.08663e-06
-5.04838e-07
-7.50627e-06
-2.63618e-06
-6.41788e-06
-5.10998e-06
-4.79372e-06
-7.38056e-06
-2.78226e-06
-8.46072e-06
-8.93958e-07
-7.05619e-06
-2.63834e-06
-4.35622e-07
1.39157e-06
-1.27369e-06
3.21239e-06
-2.23193e-06
3.98892e-06
-3.17489e-06
4.15992e-06
-4.05154e-06
4.06952e-06
-4.85204e-06
3.91755e-06
-5.58301e-06
3.79257e-06
-6.25385e-06
3.71025e-06
-6.868e-06
3.63408e-06
-7.41688e-06
3.48197e-06
-7.87606e-06
3.13058e-06
-8.20387e-06
2.42676e-06
-8.34165e-06
1.21238e-06
-8.2135e-06
-6.32983e-07
-7.72456e-06
-3.12512e-06
-6.76386e-06
-6.07068e-06
-5.23891e-06
-8.90551e-06
-3.20009e-06
-1.04995e-05
-1.10841e-06
-9.14787e-06
-3.74675e-06
-5.14996e-07
1.90656e-06
-1.45776e-06
4.15515e-06
-2.49135e-06
5.02252e-06
-3.46871e-06
5.13728e-06
-4.34213e-06
4.94293e-06
-5.10769e-06
4.68311e-06
-5.77737e-06
4.46225e-06
-6.36565e-06
4.29853e-06
-6.88221e-06
4.15065e-06
-7.32771e-06
3.92746e-06
-7.69163e-06
3.4945e-06
-7.95161e-06
2.68675e-06
-8.07209e-06
1.33285e-06
-7.99878e-06
-7.06296e-07
-7.64668e-06
-3.47723e-06
-6.88673e-06
-6.83062e-06
-5.56063e-06
-1.02316e-05
-3.59863e-06
-1.24615e-05
-1.3559e-06
-1.13906e-05
-5.10265e-06
-5.96141e-07
2.5027e-06
-1.6295e-06
5.18851e-06
-2.70866e-06
6.10168e-06
-3.68069e-06
6.10931e-06
-4.50662e-06
5.76886e-06
-5.19236e-06
5.36885e-06
-5.75775e-06
5.02764e-06
-6.22402e-06
4.7648e-06
-6.60841e-06
4.53503e-06
-6.92197e-06
4.24103e-06
-7.16924e-06
3.74176e-06
-7.34809e-06
2.86561e-06
-7.44722e-06
1.43198e-06
-7.43666e-06
-7.16853e-07
-7.24772e-06
-3.66617e-06
-6.74408e-06
-7.33426e-06
-5.71101e-06
-1.12647e-05
-3.94604e-06
-1.42265e-05
-1.63417e-06
-1.37025e-05
-6.73682e-06
-6.83678e-07
3.18638e-06
-1.79108e-06
6.29591e-06
-2.87964e-06
7.19024e-06
-3.80066e-06
7.03033e-06
-4.53162e-06
6.49982e-06
-5.09287e-06
5.9301e-06
-5.51448e-06
5.44925e-06
-5.82533e-06
5.07565e-06
-6.05022e-06
4.75993e-06
-6.21013e-06
4.40093e-06
-6.32359e-06
3.85523e-06
-6.40751e-06
2.94952e-06
-6.47415e-06
1.49862e-06
-6.51992e-06
-6.71083e-07
-6.50027e-06
-3.68582e-06
-6.28747e-06
-7.54706e-06
-5.62987e-06
-1.19223e-05
-4.19282e-06
-1.56636e-05
-1.92918e-06
-1.59661e-05
-8.66599e-06
-7.84781e-07
3.97116e-06
-1.94558e-06
7.45671e-06
-2.99815e-06
8.24281e-06
-3.81437e-06
7.84655e-06
-4.39863e-06
7.08408e-06
-4.79086e-06
6.32232e-06
-5.03307e-06
5.69146e-06
-5.16158e-06
5.20416e-06
-5.20738e-06
4.80573e-06
-5.19918e-06
4.39273e-06
-5.16681e-06
3.82286e-06
-5.14312e-06
2.92584e-06
-5.16173e-06
1.51723e-06
-5.24613e-06
-5.86682e-07
-5.38347e-06
-3.54848e-06
-5.47286e-06
-7.45767e-06
-5.25384e-06
-1.21413e-05
-4.2764e-06
-1.6641e-05
-2.21342e-06
-1.80291e-05
-1.08794e-05
-9.0969e-07
4.88085e-06
-2.09518e-06
8.6422e-06
-3.05201e-06
9.19964e-06
-3.6982e-06
8.49274e-06
-4.07836e-06
7.46424e-06
-4.25698e-06
6.50094e-06
-4.28844e-06
5.72293e-06
-4.21474e-06
5.13045e-06
-4.07019e-06
4.66119e-06
-3.88772e-06
4.21026e-06
-3.70437e-06
3.6395e-06
-3.56468e-06
2.78615e-06
-3.51991e-06
1.47246e-06
-3.61944e-06
-4.87154e-07
-3.88733e-06
-3.28059e-06
-4.26713e-06
-7.07787e-06
-4.52365e-06
-1.18848e-05
-4.1264e-06
-1.70383e-05
-2.44506e-06
-1.97104e-05
-1.33245e-05
-1.07169e-06
5.95254e-06
-2.23668e-06
9.80719e-06
-3.0152e-06
9.97816e-06
-3.4103e-06
8.88785e-06
-3.52217e-06
7.57611e-06
-3.44303e-06
6.42179e-06
-3.2377e-06
5.5176e-06
-2.95002e-06
4.84277e-06
-2.6133e-06
4.32448e-06
-2.26008e-06
3.85705e-06
-1.92977e-06
3.30919e-06
-1.67358e-06
2.52996e-06
-1.55558e-06
1.35446e-06
-1.64758e-06
-3.95154e-07
-2.01181e-06
-2.91637e-06
-2.64972e-06
-6.43996e-06
-3.38786e-06
-1.11466e-05
-3.66869e-06
-1.67574e-05
-2.5679e-06
-2.08112e-05
-1.58924e-05
-1.28499e-06
7.23753e-06
-2.35099e-06
1.08732e-05
-2.83312e-06
1.04603e-05
-2.87598e-06
8.93071e-06
-2.64946e-06
7.34959e-06
-2.27172e-06
6.04405e-06
-1.81189e-06
5.05777e-06
-1.30911e-06
4.33999e-06
-7.8986e-07
3.80523e-06
-2.81001e-07
3.34819e-06
1.80754e-07
2.84744e-06
5.42824e-07
2.16789e-06
7.33666e-07
1.16362e-06
6.64478e-07
-3.25967e-07
2.38394e-07
-2.49028e-06
-6.09742e-07
-5.59183e-06
-1.8022e-06
-9.95418e-06
-2.82548e-06
-1.57342e-05
-2.50821e-06
-2.11285e-05
-1.84006e-05
-1.55544e-06
8.79297e-06
-2.37891e-06
1.16967e-05
-2.39482e-06
1.04762e-05
-1.96425e-06
8.50014e-06
-1.33046e-06
6.71579e-06
-6.24955e-07
5.33855e-06
9.16463e-08
4.34117e-06
7.94708e-07
3.63693e-06
1.47172e-06
3.12821e-06
2.10693e-06
2.71298e-06
2.67111e-06
2.28326e-06
3.11486e-06
1.72413e-06
3.36474e-06
9.13739e-07
3.32164e-06
-2.8287e-07
2.86214e-06
-2.03078e-06
1.86024e-06
-4.58992e-06
2.7661e-07
-8.37055e-06
-1.50907e-06
-1.39485e-05
-2.17273e-06
-2.04648e-05
-2.05733e-05
-1.84548e-06
1.06384e-05
-2.1655e-06
1.20167e-05
-1.48346e-06
9.79416e-06
-4.53618e-07
7.47031e-06
6.33849e-07
5.62832e-06
1.66617e-06
4.30623e-06
2.61265e-06
3.39468e-06
3.47597e-06
2.77361e-06
4.26494e-06
2.33925e-06
4.97944e-06
1.99847e-06
5.60124e-06
1.66147e-06
6.08791e-06
1.23746e-06
6.36877e-06
6.32877e-07
6.34145e-06
-2.55545e-07
5.867e-06
-1.55633e-06
4.77138e-06
-3.49431e-06
2.88904e-06
-6.48821e-06
3.84799e-07
-1.14442e-05
-1.42393e-06
-1.86561e-05
-2.19972e-05
-1.97206e-06
1.26105e-05
-1.34065e-06
1.13853e-05
3.03615e-07
8.1499e-06
2.00868e-06
5.76524e-06
3.52623e-06
4.11078e-06
4.82089e-06
3.01157e-06
5.91975e-06
2.29582e-06
6.86497e-06
1.82839e-06
7.69158e-06
1.51264e-06
8.41689e-06
1.27316e-06
9.03478e-06
1.04358e-06
9.51168e-06
7.60555e-07
9.78353e-06
3.61031e-07
9.75163e-06
-2.23646e-07
9.27439e-06
-1.07909e-06
8.14995e-06
-2.36986e-06
6.10637e-06
-4.44464e-06
3.02219e-06
-8.36004e-06
3.90956e-08
-1.5673e-05
-2.19582e-05
-1.30804e-06
1.39186e-05
9.08665e-07
9.16856e-06
3.65687e-06
5.4017e-06
5.92642e-06
3.49569e-06
7.6975e-06
2.3397e-06
9.07966e-06
1.62941e-06
1.01777e-05
1.1978e-06
1.10757e-05
9.30338e-07
1.18318e-05
7.5653e-07
1.24768e-05
6.28172e-07
1.3014e-05
5.06385e-07
1.34185e-05
3.56109e-07
1.36357e-05
1.43815e-07
1.35782e-05
-1.66206e-07
1.31169e-05
-6.17773e-07
1.20494e-05
-1.30237e-06
1.0042e-05
-2.43722e-06
6.61558e-06
-4.9336e-06
2.18729e-06
-1.12447e-05
-1.97709e-05
1.84358e-06
1.2075e-05
6.2251e-06
4.78704e-06
9.56945e-06
2.05735e-06
1.18685e-05
1.1966e-06
1.34673e-05
7.40906e-07
1.46143e-05
4.82474e-07
1.54722e-05
3.39869e-07
1.61445e-05
2.58017e-07
1.66937e-05
2.07343e-07
1.71515e-05
1.70351e-07
1.75238e-05
1.34058e-07
1.77926e-05
8.73529e-08
1.79163e-05
2.00885e-08
1.78285e-05
-7.83989e-08
1.74312e-05
-2.20492e-07
1.65624e-05
-4.33587e-07
1.49149e-05
-7.89653e-07
1.17236e-05
-1.74232e-06
5.92089e-06
-5.442e-06
-1.385e-05
1.2075e-05
1.6862e-05
1.89194e-05
2.0116e-05
2.08569e-05
2.13393e-05
2.16792e-05
2.19372e-05
2.21446e-05
2.23149e-05
2.2449e-05
2.25363e-05
2.25564e-05
2.2478e-05
2.22575e-05
2.18239e-05
2.10343e-05
1.9292e-05
1.385e-05
)
;

boundaryField
{
    movingWall
    {
        type            calculated;
        value           uniform 0;
    }
    fixedWalls
    {
        type            calculated;
        value           uniform 0;
    }
    frontAndBack
    {
        type            empty;
        value           nonuniform 0();
    }
}


// ************************************************************************* //
