/*--------------------------------*- C++ -*----------------------------------*\
  =========                 |
  \\      /  F ield         | OpenFOAM: The Open Source CFD Toolbox
   \\    /   O peration     | Website:  https://openfoam.org
    \\  /    A nd           | Version:  7
     \\/     M anipulation  |
\*---------------------------------------------------------------------------*/
FoamFile
{
    version     2.0;
    format      ascii;
    class       volVectorField;
    location    "0.3";
    object      U;
}
// * * * * * * * * * * * * * * * * * * * * * * * * * * * * * * * * * * * * * //

dimensions      [0 1 -1 0 0 0 0];

internalField   nonuniform List<vector> 
400
(
(0.000600343 -0.00021745 0)
(-0.00042454 0.000435579 0)
(-0.00423493 0.000711999 0)
(-0.00877452 0.000787169 0)
(-0.013494 0.00079667 0)
(-0.0182396 0.000809288 0)
(-0.0230855 0.000850651 0)
(-0.0281808 0.000925098 0)
(-0.0336613 0.00102692 0)
(-0.039585 0.00113764 0)
(-0.0458401 0.00121747 0)
(-0.052015 0.00119558 0)
(-0.0572505 0.000966503 0)
(-0.0601451 0.000408299 0)
(-0.0588593 -0.00055343 0)
(-0.0516634 -0.0018246 0)
(-0.0381165 -0.00299497 0)
(-0.0204701 -0.0033593 0)
(-0.00405207 -0.00222789 0)
(0.00149799 0.00037524 0)
(0.000234679 -0.000107152 0)
(-0.00406148 0.00274769 0)
(-0.0145292 0.00416498 0)
(-0.0269027 0.00464714 0)
(-0.0398545 0.00475494 0)
(-0.0529082 0.00482195 0)
(-0.0661323 0.00499034 0)
(-0.0797973 0.00528776 0)
(-0.0941332 0.00567114 0)
(-0.109139 0.00601933 0)
(-0.124348 0.00610506 0)
(-0.138559 0.00557216 0)
(-0.149582 0.00395418 0)
(-0.154199 0.000793147 0)
(-0.148586 -0.00406289 0)
(-0.12957 -0.0100097 0)
(-0.0968853 -0.0151862 0)
(-0.0555699 -0.0166349 0)
(-0.0166945 -0.0116495 0)
(0.000185084 -0.000807371 0)
(-0.000795362 0.00129992 0)
(-0.00903194 0.00792566 0)
(-0.0257973 0.0114373 0)
(-0.0451215 0.0127281 0)
(-0.0651993 0.0130376 0)
(-0.0852998 0.0131681 0)
(-0.105431 0.0134841 0)
(-0.125887 0.014058 0)
(-0.146889 0.01476 0)
(-0.168296 0.0152504 0)
(-0.189291 0.0149363 0)
(-0.208058 0.0129575 0)
(-0.221559 0.00828462 0)
(-0.225613 3.59725e-05 0)
(-0.215569 -0.0118813 0)
(-0.187822 -0.0258614 0)
(-0.142315 -0.0377204 0)
(-0.0851437 -0.0410253 0)
(-0.0298057 -0.0299176 0)
(-0.00237443 -0.00587885 0)
(-0.002059 0.00428086 0)
(-0.0145236 0.015878 0)
(-0.0373706 0.0220136 0)
(-0.0628906 0.0242683 0)
(-0.0889901 0.024743 0)
(-0.114772 0.0248265 0)
(-0.140186 0.0251644 0)
(-0.165515 0.0258816 0)
(-0.190934 0.0267236 0)
(-0.216177 0.0270572 0)
(-0.240189 0.0258287 0)
(-0.260824 0.0215892 0)
(-0.274696 0.0127102 0)
(-0.277363 -0.00207507 0)
(-0.26404 -0.0227034 0)
(-0.23102 -0.0464283 0)
(-0.17796 -0.0665663 0)
(-0.110445 -0.0727598 0)
(-0.0422667 -0.0549951 0)
(-0.00511096 -0.0146909 0)
(-0.00338959 0.00892106 0)
(-0.0201401 0.0265018 0)
(-0.0487779 0.0354731 0)
(-0.0797012 0.0385994 0)
(-0.110643 0.0390287 0)
(-0.140625 0.0388101 0)
(-0.169576 0.0388977 0)
(-0.197774 0.0394693 0)
(-0.225376 0.0401252 0)
(-0.25207 0.0399099 0)
(-0.276745 0.0372932 0)
(-0.297246 0.0302553 0)
(-0.310303 0.0166251 0)
(-0.311731 -0.00518881 0)
(-0.296999 -0.034982 0)
(-0.262291 -0.0690688 0)
(-0.206351 -0.0985738 0)
(-0.132917 -0.109186 0)
(-0.054507 -0.0855863 0)
(-0.00799521 -0.027021 0)
(-0.00473186 0.0152183 0)
(-0.0256849 0.0397132 0)
(-0.0596804 0.051517 0)
(-0.0950993 0.0552067 0)
(-0.129591 0.0552047 0)
(-0.162183 0.0542868 0)
(-0.192844 0.0537304 0)
(-0.221897 0.0537657 0)
(-0.249545 0.0538467 0)
(-0.275546 0.0527066 0)
(-0.298938 0.0483769 0)
(-0.31786 0.0383398 0)
(-0.329526 0.0199645 0)
(-0.330361 -0.00864401 0)
(-0.316298 -0.0472912 0)
(-0.283332 -0.0917711 0)
(-0.228782 -0.131599 0)
(-0.153497 -0.148705 0)
(-0.0673142 -0.121146 0)
(-0.0113475 -0.0429476 0)
(-0.00608732 0.0231381 0)
(-0.0310789 0.0553629 0)
(-0.0698436 0.0697884 0)
(-0.108698 0.0735264 0)
(-0.145315 0.072542 0)
(-0.178835 0.0704044 0)
(-0.209352 0.068721 0)
(-0.237305 0.067777 0)
(-0.263028 0.0668948 0)
(-0.286473 0.0645368 0)
(-0.307006 0.058371 0)
(-0.323293 0.04548 0)
(-0.333285 0.0228548 0)
(-0.334244 -0.0117251 0)
(-0.322707 -0.0583144 0)
(-0.294481 -0.112731 0)
(-0.24524 -0.163656 0)
(-0.172237 -0.189732 0)
(-0.0812567 -0.161176 0)
(-0.015562 -0.0628676 0)
(-0.00750114 0.0326484 0)
(-0.0363364 0.0732361 0)
(-0.0791232 0.0898356 0)
(-0.120173 0.0929031 0)
(-0.157348 0.0902407 0)
(-0.190043 0.0862726 0)
(-0.218581 0.0829338 0)
(-0.243602 0.0805641 0)
(-0.265651 0.0783783 0)
(-0.284971 0.0746262 0)
(-0.301376 0.0667044 0)
(-0.314199 0.0514039 0)
(-0.322271 0.0254127 0)
(-0.323818 -0.0138543 0)
(-0.316122 -0.0669605 0)
(-0.294983 -0.130333 0)
(-0.254554 -0.19273 0)
(-0.188189 -0.230363 0)
(-0.0963868 -0.204887 0)
(-0.0209844 -0.0874001 0)
(-0.00906511 0.0437522 0)
(-0.0415607 0.0930715 0)
(-0.0874475 0.111115 0)
(-0.129238 0.112592 0)
(-0.165243 0.107444 0)
(-0.195298 0.100992 0)
(-0.22008 0.0954761 0)
(-0.240508 0.0912808 0)
(-0.257391 0.0875346 0)
(-0.271311 0.0823369 0)
(-0.282579 0.0729083 0)
(-0.291234 0.0558556 0)
(-0.297022 0.0276387 0)
(-0.299197 -0.0147142 0)
(-0.295953 -0.072488 0)
(-0.283435 -0.143255 0)
(-0.254761 -0.216843 0)
(-0.199524 -0.268335 0)
(-0.112073 -0.250979 0)
(-0.0278154 -0.117227 0)
(-0.010931 0.0565242 0)
(-0.0469494 0.114566 0)
(-0.0947863 0.132975 0)
(-0.135586 0.131746 0)
(-0.168496 0.123238 0)
(-0.194034 0.113666 0)
(-0.213364 0.105522 0)
(-0.227738 0.0991963 0)
(-0.238244 0.0937434 0)
(-0.245791 0.0871654 0)
(-0.251154 0.0765963 0)
(-0.255033 0.0585611 0)
(-0.258037 0.0293762 0)
(-0.260448 -0.0142928 0)
(-0.261545 -0.0745645 0)
(-0.258292 -0.150568 0)
(-0.243552 -0.234178 0)
(-0.203781 -0.301087 0)
(-0.126936 -0.297469 0)
(-0.0359957 -0.152883 0)
(-0.0133315 0.0711569 0)
(-0.052799 0.137358 0)
(-0.101088 0.154617 0)
(-0.138776 0.149384 0)
(-0.166406 0.136637 0)
(-0.185472 0.123407 0)
(-0.197744 0.112319 0)
(-0.204824 0.103706 0)
(-0.208041 0.0965327 0)
(-0.208558 0.0887453 0)
(-0.207517 0.0774681 0)
(-0.206152 0.0592413 0)
(-0.205817 0.0303381 0)
(-0.207768 -0.0128524 0)
(-0.212492 -0.0732609 0)
(-0.218269 -0.151794 0)
(-0.218692 -0.243225 0)
(-0.198186 -0.325922 0)
(-0.138897 -0.341634 0)
(-0.0450528 -0.194503 0)
(-0.0166037 0.0880197 0)
(-0.0594929 0.160978 0)
(-0.106153 0.17502 0)
(-0.138039 0.164334 0)
(-0.157858 0.146559 0)
(-0.168393 0.129323 0)
(-0.172098 0.115195 0)
(-0.170885 0.104337 0)
(-0.166223 0.0955887 0)
(-0.1594 0.0868622 0)
(-0.151768 0.0753379 0)
(-0.144928 0.0576636 0)
(-0.140808 0.0301851 0)
(-0.141509 -0.0108402 0)
(-0.148767 -0.0689919 0)
(-0.16257 -0.146935 0)
(-0.178316 -0.242934 0)
(-0.179921 -0.340239 0)
(-0.145305 -0.380077 0)
(-0.0539102 -0.241546 0)
(-0.0211994 0.10773 0)
(-0.0674326 0.184733 0)
(-0.109361 0.192806 0)
(-0.131926 0.175156 0)
(-0.14096 0.15179 0)
(-0.140802 0.130523 0)
(-0.13457 0.11357 0)
(-0.12435 0.100766 0)
(-0.111582 0.0907718 0)
(-0.0974985 0.0814787 0)
(-0.0834741 0.0701792 0)
(-0.0712777 0.0537161 0)
(-0.0632064 0.0286323 0)
(-0.0620235 -0.00875907 0)
(-0.0706282 -0.0624058 0)
(-0.0909072 -0.136454 0)
(-0.121047 -0.232846 0)
(-0.146288 -0.341768 0)
(-0.143112 -0.408895 0)
(-0.0606899 -0.292501 0)
(-0.0276349 0.131219 0)
(-0.0768035 0.207489 0)
(-0.109122 0.206041 0)
(-0.117692 0.180045 0)
(-0.112495 0.150977 0)
(-0.0994776 0.126135 0)
(-0.0822048 0.106984 0)
(-0.0626611 0.092846 0)
(-0.04201 0.0821463 0)
(-0.0212105 0.0727686 0)
(-0.00145484 0.0621731 0)
(0.0155251 0.0474814 0)
(0.0272728 0.0255585 0)
(0.0305899 -0.00702692 0)
(0.0216206 -0.0542384 0)
(-0.00332746 -0.121192 0)
(-0.0459439 -0.213176 0)
(-0.094706 -0.328817 0)
(-0.128952 -0.423951 0)
(-0.0625193 -0.344586 0)
(-0.0362329 0.159686 0)
(-0.086881 0.227237 0)
(-0.101722 0.211957 0)
(-0.0902327 0.176778 0)
(-0.0671123 0.142687 0)
(-0.0394062 0.115412 0)
(-0.0105729 0.0951976 0)
(0.0179638 0.0806849 0)
(0.0456484 0.0700356 0)
(0.0720357 0.0611621 0)
(0.0963093 0.0517552 0)
(0.116959 0.0392981 0)
(0.131565 0.0210924 0)
(0.136733 -0.00585288 0)
(0.127939 -0.0451571 0)
(0.100071 -0.102238 0)
(0.0476971 -0.184829 0)
(-0.0225299 -0.300501 0)
(-0.0989878 -0.42128 0)
(-0.0552458 -0.393433 0)
(-0.0462025 0.194161 0)
(-0.0940537 0.240183 0)
(-0.0790356 0.206508 0)
(-0.040392 0.16275 0)
(0.00372577 0.125626 0)
(0.0467807 0.0979565 0)
(0.0864655 0.0783737 0)
(0.122568 0.064774 0)
(0.155517 0.0551095 0)
(0.1856 0.0474015 0)
(0.212523 0.0396532 0)
(0.235133 0.0297934 0)
(0.251203 0.0156554 0)
(0.25737 -0.00516326 0)
(0.248767 -0.035634 0)
(0.21946 -0.0807635 0)
(0.160634 -0.149312 0)
(0.0732412 -0.256951 0)
(-0.0483091 -0.397587 0)
(-0.0327843 -0.432483 0)
(-0.0526499 0.234256 0)
(-0.086523 0.238907 0)
(-0.0244077 0.183822 0)
(0.0473236 0.135309 0)
(0.112707 0.0991445 0)
(0.168999 0.0741415 0)
(0.216538 0.0573723 0)
(0.257021 0.0461783 0)
(0.292158 0.0384925 0)
(0.323071 0.0325937 0)
(0.350031 0.0269026 0)
(0.372292 0.0198717 0)
(0.387919 0.00993551 0)
(0.393789 -0.00462464 0)
(0.385023 -0.0259351 0)
(0.355579 -0.0579575 0)
(0.294122 -0.10874 0)
(0.196363 -0.19936 0)
(0.0305682 -0.349793 0)
(0.0145107 -0.451492 0)
(-0.0366783 0.274549 0)
(-0.0317667 0.211517 0)
(0.0931939 0.13821 0)
(0.196605 0.0937374 0)
(0.2765 0.0646534 0)
(0.338685 0.0460399 0)
(0.387464 0.0343287 0)
(0.426704 0.0268847 0)
(0.459324 0.0219684 0)
(0.487118 0.0183187 0)
(0.510773 0.0148823 0)
(0.529885 0.010688 0)
(0.542856 0.00479164 0)
(0.546993 -0.00382002 0)
(0.537807 -0.0163874 0)
(0.509903 -0.0354172 0)
(0.450716 -0.0665974 0)
(0.352465 -0.13102 0)
(0.150861 -0.273043 0)
(0.103436 -0.433678 0)
(0.0704667 0.284214 0)
(0.146484 0.149951 0)
(0.322581 0.0759149 0)
(0.436755 0.0457771 0)
(0.511772 0.0291206 0)
(0.564933 0.0194027 0)
(0.603946 0.0138057 0)
(0.633798 0.0104967 0)
(0.657752 0.00842226 0)
(0.677654 0.00692219 0)
(0.694227 0.005497 0)
(0.707231 0.00371462 0)
(0.71545 0.00117165 0)
(0.716847 -0.0025391 0)
(0.707903 -0.00793275 0)
(0.684681 -0.0160943 0)
(0.635619 -0.0296497 0)
(0.552833 -0.0625164 0)
(0.34083 -0.166483 0)
(0.266763 -0.344004 0)
(0.48978 0.141218 0)
(0.58574 0.0606556 0)
(0.718751 0.0234938 0)
(0.786552 0.0115621 0)
(0.82262 0.00637285 0)
(0.845613 0.00377275 0)
(0.861401 0.00247458 0)
(0.872967 0.00180073 0)
(0.882043 0.00141682 0)
(0.889487 0.00114597 0)
(0.895559 0.000869975 0)
(0.90006 0.00049425 0)
(0.902352 -6.64973e-05 0)
(0.901456 -0.000886149 0)
(0.895718 -0.0020742 0)
(0.883476 -0.00385778 0)
(0.858406 -0.00679805 0)
(0.816693 -0.0146624 0)
(0.674035 -0.0502936 0)
(0.591265 -0.135125 0)
)
;

boundaryField
{
    movingWall
    {
        type            fixedValue;
        value           uniform (1 0 0);
    }
    fixedWalls
    {
        type            noSlip;
    }
    frontAndBack
    {
        type            empty;
    }
}


// ************************************************************************* //
