/*--------------------------------*- C++ -*----------------------------------*\
  =========                 |
  \\      /  F ield         | OpenFOAM: The Open Source CFD Toolbox
   \\    /   O peration     | Website:  https://openfoam.org
    \\  /    A nd           | Version:  7
     \\/     M anipulation  |
\*---------------------------------------------------------------------------*/
FoamFile
{
    version     2.0;
    format      ascii;
    class       volScalarField;
    location    "0.3";
    object      p;
}
// * * * * * * * * * * * * * * * * * * * * * * * * * * * * * * * * * * * * * //

dimensions      [0 2 -2 0 0 0 0];

internalField   nonuniform List<scalar> 
400
(
1.05407e-06
4.9532e-05
6.91694e-05
4.37363e-05
-2.60298e-05
-0.000136089
-0.000280427
-0.00045163
-0.000641857
-0.000843417
-0.00104886
-0.0012508
-0.00144169
-0.00161366
-0.00175867
-0.00186912
-0.00193891
-0.001964
-0.00194393
-0.0018955
-8.3145e-05
-1.51714e-05
3.95568e-06
-2.90576e-05
-0.000102252
-0.000208886
-0.000343574
-0.000500283
-0.000672667
-0.000854435
-0.00103939
-0.00122134
-0.00139402
-0.00155103
-0.0016859
-0.00179247
-0.00186528
-0.00189757
-0.00187738
-0.00180822
8.42212e-05
0.000155
0.000163185
0.00010932
1.187e-05
-0.000119076
-0.000276698
-0.000454446
-0.000646098
-0.000845929
-0.00104856
-0.00124867
-0.00144081
-0.00161905
-0.00177697
-0.00190778
-0.00200452
-0.00205696
-0.00204649
-0.0019729
0.000545484
0.000571469
0.000526456
0.000416433
0.000262527
7.75134e-05
-0.000130138
-0.000353523
-0.000587062
-0.000826365
-0.00106777
-0.00130779
-0.00154258
-0.0017674
-0.00197622
-0.00216163
-0.00231476
-0.00242241
-0.00246298
-0.00243106
0.00136387
0.00127693
0.00111723
0.000900712
0.000647439
0.000372256
8.5137e-05
-0.000207512
-0.000502207
-0.00079765
-0.00109383
-0.00139103
-0.00168889
-0.00198541
-0.00227618
-0.00255372
-0.00280715
-0.00302043
-0.00317211
-0.00324721
0.00261508
0.00230752
0.0019404
0.00154645
0.00113834
0.000731295
0.000336122
-4.3292e-05
-0.000408467
-0.000764555
-0.00111879
-0.00147888
-0.00185142
-0.00224029
-0.00264523
-0.00306022
-0.00347209
-0.00386311
-0.00421696
-0.00450213
0.00436461
0.00366604
0.00295184
0.0022825
0.00165099
0.00106904
0.000545916
7.90199e-05
-0.000343379
-0.000738696
-0.00112752
-0.00153117
-0.0019692
-0.00245692
-0.00300286
-0.0036056
-0.00425123
-0.00492213
-0.00561693
-0.00627627
0.00662174
0.00527036
0.00400644
0.00293271
0.00200011
0.00120854
0.000560902
4.10346e-05
-0.000381652
-0.000746151
-0.0010961
-0.0014763
-0.00192901
-0.00249026
-0.0031857
-0.00402463
-0.00499542
-0.00608599
-0.00732758
-0.00861629
0.00924803
0.00686021
0.0047658
0.00312898
0.00182045
0.000812785
9.34313e-05
-0.000378928
-0.000667047
-0.000845435
-0.000995194
-0.00119949
-0.00153842
-0.0020837
-0.00289218
-0.00399524
-0.00539062
-0.00708276
-0.00916586
-0.0114671
0.0117999
0.00784164
0.00455073
0.00217555
0.00044512
-0.000722015
-0.00136933
-0.0015808
-0.00147027
-0.001167
-0.0008095
-0.000540386
-0.000499994
-0.00081913
-0.00160922
-0.0029441
-0.004846
-0.0073572
-0.0106853
-0.014554
0.0132752
0.00704621
0.00211782
-0.00115409
-0.00327642
-0.00442796
-0.00470745
-0.00426584
-0.00329231
-0.00199465
-0.000593585
0.000681254
0.00159797
0.00193134
0.00147734
8.32105e-05
-0.00232844
-0.00587905
-0.0109728
-0.0171829
0.0117297
0.00237539
-0.00466335
-0.00890637
-0.0112362
-0.0119965
-0.0113773
-0.00962703
-0.00703665
-0.00391657
-0.000595288
0.00257936
0.00524388
0.00702801
0.00757478
0.00658838
0.00387488
-0.000846918
-0.00831788
-0.0179034
0.00373218
-0.00969847
-0.0192523
-0.0243314
-0.0264003
-0.0260726
-0.023681
-0.0196042
-0.0142557
-0.00806164
-0.00147302
0.00501938
0.0108783
0.0155228
0.0183527
0.0188199
0.0164944
0.0107753
0.000336676
-0.0139262
-0.0163787
-0.0348115
-0.047011
-0.0523355
-0.053157
-0.0505299
-0.0450023
-0.0371105
-0.0273877
-0.0163564
-0.00456862
0.00734947
0.0186651
0.0285215
0.0359558
0.0399955
0.0397537
0.0339927
0.0203331
-8.53994e-05
-0.0575733
-0.0816647
-0.0958988
-0.0998811
-0.0974723
-0.090459
-0.0797042
-0.065907
-0.0496656
-0.0315077
-0.0119836
0.00823671
0.0282797
0.0470007
0.0629631
0.0745422
0.0800314
0.0769639
0.0609837
0.0331573
-0.134421
-0.163852
-0.177413
-0.176041
-0.166302
-0.15118
-0.13193
-0.109339
-0.0839113
-0.055959
-0.0257794
0.00617336
0.0391271
0.0718242
0.102399
0.128418
0.146912
0.153202
0.139087
0.104191
-0.272965
-0.303864
-0.307938
-0.291007
-0.265032
-0.234788
-0.201739
-0.166413
-0.128807
-0.0885648
-0.0452356
0.00148653
0.0515304
0.104154
0.157635
0.209082
0.254091
0.284442
0.284666
0.248968
-0.524948
-0.536184
-0.505228
-0.450802
-0.39186
-0.334458
-0.2795
-0.226383
-0.173717
-0.11966
-0.0622194
0.00053603
0.0702289
0.147881
0.233399
0.324867
0.417285
0.498934
0.545808
0.538936
-1.09706
-0.944673
-0.779522
-0.638998
-0.520879
-0.421175
-0.336763
-0.263446
-0.196449
-0.131072
-0.0627894
0.0129115
0.100444
0.204355
0.328944
0.477129
0.648642
0.840867
1.04917
1.23247
-2.76822
-1.79752
-1.13966
-0.765045
-0.531124
-0.375743
-0.27144
-0.198992
-0.143894
-0.0955689
-0.0457101
0.0133492
0.0903397
0.196422
0.347023
0.562371
0.868157
1.31587
2.0325
3.04343
)
;

boundaryField
{
    movingWall
    {
        type            zeroGradient;
    }
    fixedWalls
    {
        type            zeroGradient;
    }
    frontAndBack
    {
        type            empty;
    }
}


// ************************************************************************* //
