/*--------------------------------*- C++ -*----------------------------------*\
  =========                 |
  \\      /  F ield         | OpenFOAM: The Open Source CFD Toolbox
   \\    /   O peration     | Website:  https://openfoam.org
    \\  /    A nd           | Version:  7
     \\/     M anipulation  |
\*---------------------------------------------------------------------------*/
FoamFile
{
    version     2.0;
    format      ascii;
    class       surfaceScalarField;
    location    "0.3";
    object      phi;
}
// * * * * * * * * * * * * * * * * * * * * * * * * * * * * * * * * * * * * * //

dimensions      [0 3 -1 0 0 0 0];

internalField   nonuniform List<scalar> 
760
(
9.0157e-10
-9.19261e-10
3.79893e-09
-2.89753e-09
7.99951e-09
-4.20075e-09
1.27152e-08
-4.7159e-09
1.73309e-08
-4.61619e-09
2.1428e-08
-4.09769e-09
2.47558e-08
-3.3285e-09
2.71871e-08
-2.43195e-09
2.86702e-08
-1.4837e-09
2.91888e-08
-5.19113e-10
2.8736e-08
4.52386e-10
2.73064e-08
1.42939e-09
2.49066e-08
2.39967e-09
2.15838e-08
3.32279e-09
1.7467e-08
4.1168e-09
1.28148e-08
4.65221e-09
8.05823e-09
4.75649e-09
3.8256e-09
4.23245e-09
9.14967e-10
2.91037e-09
9.14724e-10
2.85953e-09
-3.77885e-09
8.98863e-09
-9.02687e-09
1.66985e-08
-1.19108e-08
2.47637e-08
-1.27811e-08
3.23141e-08
-1.21665e-08
3.88055e-08
-1.05889e-08
4.39549e-08
-8.47768e-09
4.76573e-08
-6.13407e-09
4.9903e-08
-3.72904e-09
5.07092e-08
-1.32494e-09
5.00763e-08
1.08562e-09
4.79748e-08
3.53127e-09
4.43641e-08
6.01073e-09
3.92414e-08
8.44592e-09
3.27127e-08
1.0646e-08
2.50756e-08
1.22898e-08
1.68997e-08
1.29329e-08
9.08545e-09
1.20472e-08
2.88474e-09
9.11137e-09
3.79913e-09
3.33851e-09
-7.11724e-09
9.96605e-09
-1.56546e-08
1.75618e-08
-1.95068e-08
2.46861e-08
-1.99056e-08
3.05769e-08
-1.80574e-08
3.4982e-08
-1.49942e-08
3.7993e-08
-1.14889e-08
3.98799e-08
-8.02124e-09
4.09432e-08
-4.79254e-09
4.13984e-08
-1.78043e-09
4.13053e-08
1.17841e-09
4.05468e-08
4.28944e-09
3.88603e-08
7.69691e-09
3.59179e-08
1.1388e-08
3.14475e-08
1.51162e-08
2.53821e-08
1.8355e-08
1.80224e-08
2.02925e-08
1.01933e-08
1.98763e-08
3.39747e-09
1.59072e-08
7.1963e-09
2.75308e-09
-9.87e-09
6.91386e-09
-1.98154e-08
9.95096e-09
-2.2544e-08
1.07081e-08
-2.06628e-08
9.06582e-09
-1.64152e-08
5.62268e-09
-1.1551e-08
1.38309e-09
-7.24927e-09
-2.53737e-09
-4.10068e-09
-5.16564e-09
-2.16409e-09
-5.86299e-09
-1.08285e-09
-4.4416e-09
-2.42719e-10
-1.19823e-09
1.04631e-09
3.13737e-09
3.3615e-09
7.53508e-09
6.99041e-09
1.08683e-08
1.1783e-08
1.21734e-08
1.70498e-08
1.09408e-08
2.1525e-08
7.41509e-09
2.34019e-08
2.88842e-09
2.04337e-08
1.00844e-08
7.27821e-10
-1.05975e-08
-1.84178e-09
-1.72458e-08
-9.93956e-09
-1.44463e-08
-2.36857e-08
-6.91676e-09
-4.16999e-08
1.59883e-09
-6.16556e-08
8.40451e-09
-8.08153e-08
1.19103e-08
-9.65148e-08
1.15987e-08
-1.06575e-07
7.89556e-09
-1.09605e-07
1.94762e-09
-1.05191e-07
-4.65661e-09
-9.39447e-08
-1.02001e-08
-7.74231e-08
-1.316e-08
-5.79187e-08
-1.25139e-08
-3.81303e-08
-8.00545e-09
-2.0733e-08
-3.47423e-10
-7.90329e-09
8.69522e-09
-7.8273e-10
1.62813e-08
1.02575e-09
1.86251e-08
1.111e-08
-3.72257e-09
-6.87473e-09
-1.99554e-08
-1.01274e-09
-4.97275e-08
1.53261e-08
-9.08833e-08
3.42393e-08
-1.39168e-07
4.98836e-08
-1.89167e-07
5.84042e-08
-2.35158e-07
5.79008e-08
-2.71874e-07
4.83147e-08
-2.95138e-07
3.11601e-08
-3.02328e-07
9.13719e-09
-2.9265e-07
-1.4334e-08
-2.67227e-07
-3.56234e-08
-2.28972e-07
-5.14157e-08
-1.8227e-07
-5.92155e-08
-1.32476e-07
-5.77991e-08
-8.52495e-08
-4.75744e-08
-4.57527e-08
-3.08017e-08
-1.78281e-08
-1.16435e-08
-3.09861e-09
3.89565e-09
8.0114e-09
-1.22736e-08
5.39852e-09
-5.34683e-08
4.01819e-08
-1.2173e-07
8.35875e-08
-2.10563e-07
1.23073e-07
-3.10688e-07
1.50009e-07
-4.11535e-07
1.59251e-07
-5.02551e-07
1.48917e-07
-5.74345e-07
1.20109e-07
-6.19609e-07
7.6424e-08
-6.33788e-07
2.33162e-08
-6.15487e-07
-3.26351e-08
-5.66593e-07
-8.45169e-08
-4.92114e-07
-1.25895e-07
-3.99721e-07
-1.51608e-07
-2.99012e-07
-1.58509e-07
-2.00508e-07
-1.46078e-07
-1.1445e-07
-1.1686e-07
-4.94502e-08
-7.66434e-08
-1.10409e-08
-3.45136e-08
-3.02926e-09
-2.74843e-08
3.28823e-08
-1.11402e-07
1.241e-07
-2.44028e-07
2.16213e-07
-4.11233e-07
2.90278e-07
-5.95457e-07
3.34234e-07
-7.7798e-07
3.41774e-07
-9.40827e-07
3.11764e-07
-1.06838e-06
2.47659e-07
-1.14863e-06
1.56679e-07
-1.17414e-06
4.88264e-08
-1.14256e-06
-6.42156e-08
-1.05684e-06
-1.70236e-07
-9.25039e-07
-2.57697e-07
-7.59716e-07
-3.16932e-07
-5.76926e-07
-3.41299e-07
-3.94794e-07
-3.2821e-07
-2.31725e-07
-2.79929e-07
-1.0435e-07
-2.04018e-07
-2.52129e-08
-1.1365e-07
-2.82416e-08
-5.29973e-08
8.5879e-08
-2.0628e-07
2.77382e-07
-4.41301e-07
4.51234e-07
-7.31258e-07
5.80235e-07
-1.04562e-06
6.486e-07
-1.35341e-06
6.49564e-07
-1.62579e-06
5.84142e-07
-1.83818e-06
4.6005e-07
-1.9719e-06
2.904e-07
-2.01533e-06
9.22537e-08
-1.96464e-06
-1.1491e-07
-1.82409e-06
-3.10785e-07
-1.60588e-06
-4.75905e-07
-1.32945e-06
-5.93365e-07
-1.02019e-06
-6.50551e-07
-7.07599e-07
-6.40806e-07
-4.22698e-07
-5.6483e-07
-1.95046e-07
-4.3167e-07
-4.91477e-08
-2.59548e-07
-7.73883e-08
-9.36604e-08
1.79538e-07
-3.543e-07
5.38021e-07
-7.44766e-07
8.417e-07
-1.21825e-06
1.05372e-06
-1.72487e-06
1.15522e-06
-2.2161e-06
1.14079e-06
-2.64804e-06
1.01609e-06
-2.98398e-06
7.95991e-07
-3.19622e-06
5.0264e-07
-3.26741e-06
1.63443e-07
-3.19144e-06
-1.90885e-07
-2.97389e-06
-5.28333e-07
-2.63205e-06
-8.1774e-07
-2.19433e-06
-1.03109e-06
-1.69886e-06
-1.14602e-06
-1.19127e-06
-1.14839e-06
-7.21378e-07
-1.03473e-06
-3.38848e-07
-8.142e-07
-8.78481e-08
-5.10548e-07
-1.65235e-07
-1.5545e-07
3.34988e-07
-5.74644e-07
9.57215e-07
-1.19015e-06
1.4572e-06
-1.92498e-06
1.78856e-06
-2.70175e-06
1.93199e-06
-3.44823e-06
1.88726e-06
-4.10103e-06
1.66889e-06
-4.60817e-06
1.30313e-06
-4.93071e-06
8.25177e-07
-5.04396e-06
2.76693e-07
-4.93838e-06
-2.96459e-07
-4.6203e-06
-8.4642e-07
-4.11229e-06
-1.32575e-06
-3.45315e-06
-1.69022e-06
-2.69699e-06
-1.90218e-06
-1.911e-06
-1.93439e-06
-1.17162e-06
-1.77411e-06
-5.58828e-07
-1.42699e-06
-1.48217e-07
-9.21159e-07
-3.13452e-07
-2.45054e-07
5.80041e-07
-8.87375e-07
1.59954e-06
-1.81235e-06
2.38218e-06
-2.89936e-06
2.87557e-06
-4.03392e-06
3.06655e-06
-5.11403e-06
2.96737e-06
-6.05343e-06
2.60829e-06
-6.7831e-06
2.0328e-06
-7.25184e-06
1.29392e-06
-7.42662e-06
4.51472e-07
-7.2931e-06
-4.2998e-07
-6.85657e-06
-1.28294e-06
-6.14327e-06
-2.03905e-06
-5.20162e-06
-2.63187e-06
-4.10294e-06
-3.00087e-06
-2.94054e-06
-3.09678e-06
-1.82643e-06
-2.88821e-06
-8.84539e-07
-2.36888e-06
-2.39604e-07
-1.56609e-06
-5.53056e-07
-3.69164e-07
9.49204e-07
-1.30976e-06
2.54014e-06
-2.63584e-06
3.70826e-06
-4.16585e-06
4.40558e-06
-5.73837e-06
4.63907e-06
-7.21793e-06
4.44693e-06
-8.49574e-06
3.8861e-06
-9.48808e-06
3.02514e-06
-1.01339e-05
1.93976e-06
-1.0393e-05
7.10566e-07
-1.02452e-05
-5.77776e-07
-9.69144e-06
-1.83672e-06
-8.75627e-06
-2.97421e-06
-7.49199e-06
-3.89616e-06
-5.98283e-06
-4.51002e-06
-4.34831e-06
-4.7313e-06
-2.74319e-06
-4.49334e-06
-1.35192e-06
-3.76015e-06
-3.74549e-07
-2.54347e-06
-9.27604e-07
-5.34252e-07
1.48346e-06
-1.85227e-06
3.85815e-06
-3.66083e-06
5.51682e-06
-5.69585e-06
6.4406e-06
-7.74175e-06
6.68497e-06
-9.63298e-06
6.33815e-06
-1.12476e-05
5.50074e-06
-1.24985e-05
4.27604e-06
-1.33247e-05
2.76599e-06
-1.36851e-05
1.07094e-06
-1.35547e-05
-7.08194e-07
-1.29251e-05
-2.46635e-06
-1.18085e-05
-4.09073e-06
-1.02463e-05
-5.45838e-06
-8.31962e-06
-6.43673e-06
-6.16192e-06
-6.889e-06
-3.96895e-06
-6.68631e-06
-2.00098e-06
-5.72811e-06
-5.69972e-07
-3.97448e-06
-1.49758e-06
-7.49751e-07
2.23321e-06
-2.51827e-06
5.62667e-06
-4.84653e-06
7.84509e-06
-7.36262e-06
8.95668e-06
-9.80017e-06
9.12251e-06
-1.19841e-05
8.52204e-06
-1.38068e-05
7.32351e-06
-1.52055e-05
5.6747e-06
-1.61423e-05
3.70281e-06
-1.65907e-05
1.51936e-06
-1.65272e-05
-7.71725e-07
-1.59293e-05
-3.06426e-06
-1.47808e-05
-5.23924e-06
-1.30844e-05
-7.1548e-06
-1.08825e-05
-8.63864e-06
-8.28516e-06
-9.48631e-06
-5.50176e-06
-9.46971e-06
-2.86759e-06
-8.36228e-06
-8.49696e-07
-5.99238e-06
-2.34727e-06
-1.04087e-06
3.27408e-06
-3.31259e-06
7.89838e-06
-6.08373e-06
1.06162e-05
-8.85763e-06
1.17306e-05
-1.13553e-05
1.16201e-05
-1.345e-05
1.06168e-05
-1.51078e-05
8.98122e-06
-1.63403e-05
6.90724e-06
-1.71724e-05
4.53494e-06
-1.76193e-05
1.9663e-06
-1.76734e-05
-7.17676e-07
-1.72986e-05
-3.43904e-06
-1.64338e-05
-6.10402e-06
-1.50067e-05
-8.58187e-06
-1.29624e-05
-1.0683e-05
-1.03101e-05
-1.21386e-05
-7.1899e-06
-1.25899e-05
-3.95475e-06
-1.15974e-05
-1.24771e-06
-8.69942e-06
-3.59498e-06
-1.46674e-06
4.74083e-06
-4.21767e-06
1.06493e-05
-7.06516e-06
1.34637e-05
-9.44278e-06
1.41082e-05
-1.1197e-05
1.33744e-05
-1.23779e-05
1.17977e-05
-1.31204e-05
9.72373e-06
-1.35764e-05
7.36317e-06
-1.38752e-05
4.83377e-06
-1.4102e-05
2.1931e-06
-1.42846e-05
-5.35056e-07
-1.43861e-05
-3.33757e-06
-1.4301e-05
-6.1891e-06
-1.38605e-05
-9.02236e-06
-1.28535e-05
-1.169e-05
-1.10774e-05
-1.39147e-05
-8.43609e-06
-1.52312e-05
-5.10512e-06
-1.49284e-05
-1.79547e-06
-1.20091e-05
-5.39045e-06
-2.11527e-06
6.8561e-06
-4.85291e-06
1.3387e-05
-6.55529e-06
1.51661e-05
-6.99891e-06
1.45518e-05
-6.48239e-06
1.28579e-05
-5.40771e-06
1.07231e-05
-4.14967e-06
8.46569e-06
-3.01142e-06
6.22492e-06
-2.21451e-06
4.03686e-06
-1.90194e-06
1.88053e-06
-2.14114e-06
-2.95858e-07
-2.91974e-06
-2.55897e-06
-4.13465e-06
-4.97419e-06
-5.57298e-06
-7.58403e-06
-6.89655e-06
-1.03665e-05
-7.64898e-06
-1.31623e-05
-7.31849e-06
-1.55617e-05
-5.51514e-06
-1.67317e-05
-2.45589e-06
-1.50683e-05
-7.84634e-06
-2.82553e-06
9.68163e-06
-2.60232e-06
1.31637e-05
4.84919e-07
1.20789e-05
4.93469e-06
1.01021e-05
9.7608e-06
8.03175e-06
1.43402e-05
6.14364e-06
1.82843e-05
4.52158e-06
2.13587e-05
3.15051e-06
2.34241e-05
1.97152e-06
2.43941e-05
9.10477e-07
2.4211e-05
-1.12717e-07
2.28421e-05
-1.19004e-06
2.0283e-05
-2.41508e-06
1.65959e-05
-3.89701e-06
1.19665e-05
-5.737e-06
6.78963e-06
-7.98543e-06
1.77338e-06
-1.05454e-05
-1.93711e-06
-1.30213e-05
-2.64681e-06
-1.43586e-05
-1.04931e-05
9.68163e-06
2.28454e-05
3.49242e-05
4.50263e-05
5.3058e-05
5.92017e-05
6.37232e-05
6.68738e-05
6.88453e-05
6.97558e-05
6.9643e-05
6.8453e-05
6.60379e-05
6.21409e-05
5.64039e-05
4.84185e-05
3.7873e-05
2.48518e-05
1.04931e-05
)
;

boundaryField
{
    movingWall
    {
        type            calculated;
        value           uniform 0;
    }
    fixedWalls
    {
        type            calculated;
        value           uniform 0;
    }
    frontAndBack
    {
        type            empty;
        value           nonuniform 0();
    }
}


// ************************************************************************* //
