/*--------------------------------*- C++ -*----------------------------------*\
  =========                 |
  \\      /  F ield         | OpenFOAM: The Open Source CFD Toolbox
   \\    /   O peration     | Website:  https://openfoam.org
    \\  /    A nd           | Version:  7
     \\/     M anipulation  |
\*---------------------------------------------------------------------------*/
FoamFile
{
    version     2.0;
    format      ascii;
    class       volVectorField;
    location    "0.3";
    object      U;
}
// * * * * * * * * * * * * * * * * * * * * * * * * * * * * * * * * * * * * * //

dimensions      [0 1 -1 0 0 0 0];

internalField   nonuniform List<vector> 
400
(
(3.05587e-06 -5.47865e-06 0)
(2.05694e-05 -2.04296e-05 0)
(5.68794e-05 -3.13615e-05 0)
(0.000103044 -3.63372e-05 0)
(0.000150893 -3.62024e-05 0)
(0.00019518 -3.24653e-05 0)
(0.000232707 -2.65251e-05 0)
(0.000261697 -1.94349e-05 0)
(0.000281345 -1.18546e-05 0)
(0.000291381 -4.10737e-06 0)
(0.000291724 3.70079e-06 0)
(0.00028231 1.15321e-05 0)
(0.000263102 1.92601e-05 0)
(0.000234298 2.65244e-05 0)
(0.000196687 3.26192e-05 0)
(0.000152097 3.64477e-05 0)
(0.000103834 3.65809e-05 0)
(5.72877e-05 3.15081e-05 0)
(2.07456e-05 2.0423e-05 0)
(3.10955e-06 5.37742e-06 0)
(1.20278e-05 -4.25786e-05 0)
(5.46341e-05 -0.000109753 0)
(0.000125468 -0.000150573 0)
(0.000207308 -0.000165924 0)
(0.000287293 -0.000161214 0)
(0.000358451 -0.000142699 0)
(0.000417056 -0.000115839 0)
(0.000461409 -8.46713e-05 0)
(0.000491109 -5.16978e-05 0)
(0.000506331 -1.81141e-05 0)
(0.000507234 1.57316e-05 0)
(0.000493666 4.97522e-05 0)
(0.00046519 8.35029e-05 0)
(0.000421445 0.000115614 0)
(0.000362768 0.000143364 0)
(0.00029094 0.000162505 0)
(0.000209895 0.000167421 0)
(0.000126905 0.000151814 0)
(5.51541e-05 0.000110391 0)
(1.21078e-05 4.26036e-05 0)
(1.47892e-05 -0.000110085 0)
(6.29585e-05 -0.000251892 0)
(0.000136308 -0.000324839 0)
(0.000213083 -0.0003432 0)
(0.000279631 -0.000322757 0)
(0.000331225 -0.000278069 0)
(0.000367759 -0.000220753 0)
(0.000391478 -0.000158722 0)
(0.000405548 -9.62175e-05 0)
(0.000412777 -3.44578e-05 0)
(0.00041466 2.72676e-05 0)
(0.000410898 9.02529e-05 0)
(0.000399449 0.00015496 0)
(0.000377113 0.000219715 0)
(0.000340568 0.000279701 0)
(0.000287682 0.000326422 0)
(0.000218939 0.000347805 0)
(0.00013965 0.000329088 0)
(6.41948e-05 0.000254651 0)
(1.49805e-05 0.000110844 0)
(1.40091e-05 -0.00017686 0)
(4.96515e-05 -0.000376426 0)
(8.80272e-05 -0.000456606 0)
(0.000108884 -0.000453446 0)
(0.000104002 -0.000399426 0)
(7.64686e-05 -0.000321267 0)
(3.52953e-05 -0.000238255 0)
(-8.18922e-06 -0.000161629 0)
(-4.29963e-05 -9.51533e-05 0)
(-6.06826e-05 -3.66662e-05 0)
(-5.69253e-05 1.97065e-05 0)
(-3.22911e-05 8.09395e-05 0)
(7.85394e-06 0.000152391 0)
(5.42915e-05 0.00023527 0)
(9.56714e-05 0.000324572 0)
(0.000120807 0.000407761 0)
(0.000121343 0.000464452 0)
(9.53134e-05 0.000467289 0)
(5.24499e-05 0.000383897 0)
(1.44774e-05 0.000179309 0)
(8.76591e-06 -0.00022064 0)
(6.52216e-06 -0.000417996 0)
(-4.49397e-05 -0.000445399 0)
(-0.000155853 -0.000372281 0)
(-0.000319346 -0.000255769 0)
(-0.000515649 -0.000139082 0)
(-0.000718103 -5.00655e-05 0)
(-0.000898551 -1.05509e-06 0)
(-0.00103188 9.43612e-06 0)
(-0.00109962 -6.40793e-06 0)
(-0.00109246 -2.98079e-05 0)
(-0.00101141 -4.00572e-05 0)
(-0.000867686 -1.93421e-05 0)
(-0.000681219 4.2709e-05 0)
(-0.000477903 0.000145167 0)
(-0.000285788 0.000273041 0)
(-0.000130479 0.000396068 0)
(-2.97247e-05 0.000469392 0)
(1.25981e-05 0.000435603 0)
(9.86257e-06 0.00022695 0)
(-4.28003e-06 -0.000205597 0)
(-8.62701e-05 -0.000271977 0)
(-0.000316105 -0.000130249 0)
(-0.000679712 9.9158e-05 0)
(-0.00113948 0.000323879 0)
(-0.00164496 0.00047953 0)
(-0.00213877 0.000530315 0)
(-0.00256423 0.000468005 0)
(-0.00287273 0.00030826 0)
(-0.00302931 8.48927e-05 0)
(-0.00301647 -0.000157212 0)
(-0.00283588 -0.000369955 0)
(-0.00250827 -0.000510103 0)
(-0.00207118 -0.000547013 0)
(-0.00157481 -0.000469399 0)
(-0.00107603 -0.000290535 0)
(-0.000630733 -5.11718e-05 0)
(-0.000285951 0.000180444 0)
(-7.37571e-05 0.000310373 0)
(-1.86657e-06 0.00022032 0)
(-3.11571e-05 -6.97231e-05 0)
(-0.000262304 0.000235494 0)
(-0.000813101 0.000750532 0)
(-0.00162079 0.00127921 0)
(-0.00259164 0.00168072 0)
(-0.00362305 0.00186548 0)
(-0.00460738 0.00179339 0)
(-0.00544246 0.0014705 0)
(-0.0060427 0.000941877 0)
(-0.00634742 0.000281898 0)
(-0.00632621 -0.000417342 0)
(-0.00598157 -0.00105856 0)
(-0.00534876 -0.00155218 0)
(-0.00449267 -0.00182885 0)
(-0.0035019 -0.00185073 0)
(-0.00247972 -0.00162069 0)
(-0.00153221 -0.00118834 0)
(-0.000756928 -0.000651747 0)
(-0.000238005 -0.000156762 0)
(-2.6147e-05 0.0001018 0)
(-8.12936e-05 0.000290593 0)
(-0.000572445 0.00138478 0)
(-0.00166587 0.00260987 0)
(-0.00320979 0.00366209 0)
(-0.00501486 0.0043379 0)
(-0.00689458 0.00452141 0)
(-0.00866341 0.00417767 0)
(-0.0101501 0.00334495 0)
(-0.0112136 0.00212227 0)
(-0.0117547 0.000653674 0)
(-0.0117236 -0.00088953 0)
(-0.0111234 -0.00232785 0)
(-0.0100099 -0.00349322 0)
(-0.00848834 -0.00424831 0)
(-0.00670505 -0.0045047 0)
(-0.00483464 -0.00423852 0)
(-0.00306245 -0.00350174 0)
(-0.00156893 -0.00242757 0)
(-0.000528455 -0.00123292 0)
(-7.1588e-05 -0.000224934 0)
(-0.000168545 0.00104051 0)
(-0.00108849 0.00360888 0)
(-0.00305351 0.00607259 0)
(-0.00575958 0.00798378 0)
(-0.00886284 0.00906477 0)
(-0.0120484 0.00917973 0)
(-0.0150158 0.00831853 0)
(-0.0174938 0.00658138 0)
(-0.0192624 0.00415844 0)
(-0.0201676 0.0013059 0)
(-0.0201307 -0.00167986 0)
(-0.019154 -0.00448961 0)
(-0.0173206 -0.00682953 0)
(-0.0147913 -0.00844987 0)
(-0.0117945 -0.00917289 0)
(-0.00860961 -0.00891854 0)
(-0.00554194 -0.00772494 0)
(-0.0029026 -0.00576091 0)
(-0.00101559 -0.0033354 0)
(-0.000151151 -0.000914526 0)
(-0.000312 0.00243038 0)
(-0.00190516 0.00754477 0)
(-0.00520565 0.0120389 0)
(-0.00966259 0.0152869 0)
(-0.0146943 0.0169367 0)
(-0.0197988 0.0168544 0)
(-0.0245147 0.0150911 0)
(-0.0284347 0.0118557 0)
(-0.031232 0.00748261 0)
(-0.0326786 0.00239842 0)
(-0.0326554 -0.00291381 0)
(-0.0311593 -0.00795079 0)
(-0.0283054 -0.0122273 0)
(-0.0243246 -0.0153161 0)
(-0.0195546 -0.0168899 0)
(-0.0144203 -0.0167614 0)
(-0.0094009 -0.0149199 0)
(-0.00500589 -0.0115574 0)
(-0.00179868 -0.00709215 0)
(-0.000283788 -0.00220576 0)
(-0.000536259 0.00482049 0)
(-0.00313788 0.0140809 0)
(-0.00839057 0.0217356 0)
(-0.0153617 0.0269642 0)
(-0.0231201 0.0293667 0)
(-0.0309051 0.0288617 0)
(-0.0380443 0.0256251 0)
(-0.0439574 0.0200436 0)
(-0.0481852 0.0126681 0)
(-0.0504069 0.00416867 0)
(-0.0504493 -0.00470919 0)
(-0.0482951 -0.0131882 0)
(-0.0440883 -0.0205067 0)
(-0.0381371 -0.0259705 0)
(-0.0309107 -0.0290113 0)
(-0.0230214 -0.0292493 0)
(-0.0151865 -0.0265547 0)
(-0.00820554 -0.0211006 0)
(-0.00301366 -0.0134152 0)
(-0.000496823 -0.0044554 0)
(-0.000870771 0.00870139 0)
(-0.00491351 0.0243839 0)
(-0.012882 0.0367255 0)
(-0.0232769 0.0447405 0)
(-0.0346761 0.0480612 0)
(-0.0459833 0.046761 0)
(-0.0562724 0.0412456 0)
(-0.0647671 0.0321785 0)
(-0.0708638 0.0204165 0)
(-0.0741401 0.00695545 0)
(-0.0743575 -0.00711625 0)
(-0.0714681 -0.0206618 0)
(-0.0656263 -0.0325452 0)
(-0.0572034 -0.041691 0)
(-0.0467995 -0.0471594 0)
(-0.0352398 -0.0482385 0)
(-0.0235428 -0.044546 0)
(-0.0129117 -0.0361307 0)
(-0.00484245 -0.0235839 0)
(-0.000829715 -0.00818217 0)
(-0.00134893 0.0147022 0)
(-0.00735498 0.0398791 0)
(-0.0189001 0.0588298 0)
(-0.0336703 0.0705274 0)
(-0.0495853 0.07482 0)
(-0.0651488 0.0721274 0)
(-0.0791719 0.0632552 0)
(-0.0907016 0.049279 0)
(-0.0990174 0.031462 0)
(-0.103616 0.0111997 0)
(-0.104195 -0.0100159 0)
(-0.100655 -0.0306233 0)
(-0.0931154 -0.049025 0)
(-0.0819501 -0.0636392 0)
(-0.0678348 -0.0729825 0)
(-0.0517788 -0.0757936 0)
(-0.0351273 -0.0711937 0)
(-0.0196039 -0.0588747 0)
(-0.00752397 -0.0393267 0)
(-0.00134072 -0.0141243 0)
(-0.00201196 0.023586 0)
(-0.0105723 0.0621611 0)
(-0.0265372 0.0898983 0)
(-0.0464424 0.106044 0)
(-0.0673692 0.111041 0)
(-0.087411 0.106004 0)
(-0.105195 0.0924071 0)
(-0.119704 0.0719146 0)
(-0.130214 0.0462898 0)
(-0.136226 0.0173582 0)
(-0.137414 -0.0129901 0)
(-0.133607 -0.042779 0)
(-0.124809 -0.0699273 0)
(-0.111266 -0.0922561 0)
(-0.0935636 -0.107547 0)
(-0.0727401 -0.11368 0)
(-0.0503746 -0.108859 0)
(-0.0287665 -0.091939 0)
(-0.0113671 -0.0628771 0)
(-0.00212052 -0.02332 0)
(-0.00293625 0.036272 0)
(-0.0147036 0.0928441 0)
(-0.0357012 0.131349 0)
(-0.0608437 0.152034 0)
(-0.0862301 0.156706 0)
(-0.109687 0.147788 0)
(-0.129924 0.12783 0)
(-0.146152 0.0992941 0)
(-0.157905 0.0644908 0)
(-0.164887 0.0256014 0)
(-0.166861 -0.0152346 0)
(-0.163596 -0.0557998 0)
(-0.154876 -0.0936723 0)
(-0.140596 -0.126122 0)
(-0.120929 -0.150073 0)
(-0.09655 -0.162178 0)
(-0.0689067 -0.159073 0)
(-0.0406934 -0.137861 0)
(-0.0167651 -0.0969411 0)
(-0.00332434 -0.0372387 0)
(-0.0043291 0.0539851 0)
(-0.0200842 0.133346 0)
(-0.0460738 0.183273 0)
(-0.074945 0.206743 0)
(-0.101909 0.208464 0)
(-0.125071 0.193198 0)
(-0.143852 0.165114 0)
(-0.158253 0.127644 0)
(-0.168521 0.0835557 0)
(-0.174897 0.0351157 0)
(-0.177444 -0.0156704 0)
(-0.175947 -0.0667868 0)
(-0.1699 -0.115913 0)
(-0.15859 -0.160128 0)
(-0.141301 -0.195641 0)
(-0.11765 -0.217647 0)
(-0.088084 -0.2204 0)
(-0.0548949 -0.197717 0)
(-0.0241625 -0.144253 0)
(-0.00523728 -0.0579337 0)
(-0.00671047 0.0788225 0)
(-0.0273714 0.184311 0)
(-0.0564006 0.242264 0)
(-0.0837087 0.262781 0)
(-0.104669 0.256251 0)
(-0.119125 0.231134 0)
(-0.128381 0.193654 0)
(-0.134028 0.148108 0)
(-0.137535 0.0973102 0)
(-0.140014 0.0430535 0)
(-0.142056 -0.0134421 0)
(-0.143629 -0.0710929 0)
(-0.144019 -0.128485 0)
(-0.141829 -0.183342 0)
(-0.135092 -0.231914 0)
(-0.121537 -0.268315 0)
(-0.0991885 -0.283982 0)
(-0.0679894 -0.267592 0)
(-0.033534 -0.206125 0)
(-0.00832396 -0.0884108 0)
(-0.0110099 0.118152 0)
(-0.0361392 0.245846 0)
(-0.0590539 0.296797 0)
(-0.0701617 0.300726 0)
(-0.0692116 0.277429 0)
(-0.0603456 0.239327 0)
(-0.0478691 0.193874 0)
(-0.0352633 0.145129 0)
(-0.025149 0.094932 0)
(-0.0193404 0.0437636 0)
(-0.0188913 -0.00865275 0)
(-0.0240937 -0.0628892 0)
(-0.0344033 -0.119341 0)
(-0.0482804 -0.17762 0)
(-0.0629876 -0.23565 0)
(-0.0744438 -0.288342 0)
(-0.0773657 -0.325873 0)
(-0.0666112 -0.331751 0)
(-0.041801 -0.280555 0)
(-0.0129527 -0.136379 0)
(-0.0139841 0.183519 0)
(-0.0329021 0.302975 0)
(-0.0154569 0.310289 0)
(0.0249338 0.276827 0)
(0.0733613 0.230851 0)
(0.121542 0.183653 0)
(0.164843 0.139664 0)
(0.200367 0.0999492 0)
(0.226338 0.0638954 0)
(0.241691 0.0301008 0)
(0.245741 -0.00324328 0)
(0.238038 -0.0382096 0)
(0.218349 -0.077042 0)
(0.18688 -0.121893 0)
(0.144747 -0.174157 0)
(0.0946099 -0.232985 0)
(0.0414441 -0.292599 0)
(-0.00551476 -0.3378 0)
(-0.0292013 -0.334019 0)
(-0.0131265 -0.20268 0)
(0.111725 0.111737 0)
(0.169585 0.163761 0)
(0.284635 0.152279 0)
(0.400933 0.12457 0)
(0.493949 0.0958252 0)
(0.564716 0.0706731 0)
(0.617571 0.0501881 0)
(0.655576 0.033966 0)
(0.680938 0.0210193 0)
(0.695213 0.0101936 0)
(0.699206 0.000290172 0)
(0.692861 -0.00996307 0)
(0.675184 -0.0220128 0)
(0.644172 -0.037531 0)
(0.596807 -0.0583311 0)
(0.528936 -0.0858538 0)
(0.434757 -0.119792 0)
(0.31119 -0.15498 0)
(0.183542 -0.17298 0)
(0.115384 -0.119798 0)
)
;

boundaryField
{
    movingWall
    {
        type            fixedValue;
        value           uniform (1 0 0);
    }
    fixedWalls
    {
        type            noSlip;
    }
    frontAndBack
    {
        type            empty;
    }
}


// ************************************************************************* //
