/*--------------------------------*- C++ -*----------------------------------*\
  =========                 |
  \\      /  F ield         | OpenFOAM: The Open Source CFD Toolbox
   \\    /   O peration     | Website:  https://openfoam.org
    \\  /    A nd           | Version:  9
     \\/     M anipulation  |
\*---------------------------------------------------------------------------*/
FoamFile
{
    format      ascii;
    class       volScalarField;
    location    "0.5";
    object      p;
}
// * * * * * * * * * * * * * * * * * * * * * * * * * * * * * * * * * * * * * //

dimensions      [ 0 2 -2 0 0 0 0 ];

internalField   nonuniform List<scalar> 
400
(
1.45232e-06
5.02854e-05
7.01512e-05
4.48865e-05
-2.47607e-05
-0.00013478
-0.000279178
-0.000450546
-0.000641032
-0.000842917
-0.00104871
-0.00125099
-0.00144215
-0.00161429
-0.00175935
-0.00186974
-0.00193936
-0.00196423
-0.00194394
-0.00189533
-8.30491e-05
-1.48454e-05
4.4369e-06
-2.84953e-05
-0.000101653
-0.000208283
-0.000342999
-0.000499763
-0.000672229
-0.000854107
-0.00103919
-0.00122129
-0.00139413
-0.00155127
-0.00168622
-0.0017928
-0.00186553
-0.00189763
-0.00187717
-0.00180766
8.40817e-05
0.000155195
0.000163606
0.000109849
1.24339e-05
-0.00011853
-0.000276205
-0.000454025
-0.000645751
-0.000845651
-0.00104834
-0.00124852
-0.00144072
-0.00161904
-0.00177702
-0.00190788
-0.00200459
-0.00205692
-0.0020462
-0.00197224
0.000545568
0.000571871
0.000527071
0.000417149
0.000263268
7.82176e-05
-0.000129524
-0.000353036
-0.000586718
-0.000826158
-0.00106768
-0.00130778
-0.00154263
-0.00176749
-0.00197632
-0.00216175
-0.00231488
-0.00242249
-0.00246289
-0.00243069
0.00136477
0.00127797
0.00111834
0.000901821
0.000648502
0.00037324
8.60044e-05
-0.000206801
-0.000501686
-0.000797337
-0.00109372
-0.00139111
-0.00168912
-0.00198576
-0.0022766
-0.00255415
-0.00280767
-0.00302098
-0.00317262
-0.0032476
0.0026173
0.0023096
0.0019423
0.00154816
0.00113985
0.000732602
0.000337227
-4.23969e-05
-0.000407797
-0.000764131
-0.00111863
-0.00147899
-0.0018518
-0.00224092
-0.00264609
-0.00306132
-0.00347332
-0.00386448
-0.00421847
-0.00450376
0.00436842
0.00366937
0.00295474
0.002285
0.00165311
0.00107078
0.000547313
8.00918e-05
-0.000342617
-0.000738238
-0.00112737
-0.00153135
-0.00196972
-0.00245779
-0.00300409
-0.00360719
-0.00425318
-0.00492443
-0.00561963
-0.0062794
0.00662705
0.00527487
0.00401026
0.00293597
0.00200284
0.00121076
0.000562639
4.23214e-05
-0.000380788
-0.000745686
-0.00109602
-0.0014766
-0.00192972
-0.00249139
-0.00318729
-0.00402671
-0.00499802
-0.00608915
-0.00733141
-0.00862086
0.00925442
0.00686552
0.00477022
0.0031327
0.00182355
0.000815295
9.53935e-05
-0.000377483
-0.000666094
-0.000844954
-0.00099517
-0.00119992
-0.00153931
-0.00208507
-0.00289407
-0.0039977
-0.00539371
-0.00708655
-0.00917053
-0.0114727
0.0118067
0.00784719
0.00455527
0.00217931
0.000448213
-0.000719531
-0.0013674
-0.0015794
-0.00146936
-0.00116658
-0.000809552
-0.000540912
-0.000501007
-0.000820653
-0.00161129
-0.00294677
-0.00484934
-0.0073613
-0.0106904
-0.0145601
0.0132814
0.0070512
0.00212183
-0.00115081
-0.00327377
-0.00442588
-0.00470588
-0.00426476
-0.00329168
-0.00199446
-0.000593826
0.000680577
0.00159684
0.00192973
0.00147521
8.05044e-05
-0.00233178
-0.0058831
-0.0109777
-0.017189
0.0117342
0.00237891
-0.0046606
-0.00890419
-0.0112345
-0.0119952
-0.0113765
-0.00962655
-0.00703655
-0.00391682
-0.00059588
0.00257842
0.00524258
0.00702632
0.00757266
0.00658579
0.00387179
-0.000850587
-0.00832226
-0.0179086
0.00373394
-0.00969723
-0.0192515
-0.0243308
-0.0264
-0.0260726
-0.0236812
-0.0196047
-0.0142564
-0.00806255
-0.00147416
0.00501803
0.0108767
0.015521
0.0183506
0.0188175
0.0164917
0.0107722
0.000333231
-0.0139301
-0.0163803
-0.0348129
-0.0470124
-0.052337
-0.0531585
-0.0505314
-0.0450038
-0.0371121
-0.0273894
-0.0163582
-0.00457046
0.00734756
0.0186631
0.0285195
0.0359537
0.0399933
0.0397515
0.0339905
0.0203309
-8.77181e-05
-0.0575781
-0.0816688
-0.0959023
-0.0998843
-0.0974753
-0.0904618
-0.0797069
-0.0659096
-0.0496681
-0.0315103
-0.0119861
0.00823424
0.0282773
0.0469984
0.062961
0.0745403
0.0800297
0.0769625
0.0609827
0.0331567
-0.134428
-0.163858
-0.177418
-0.176045
-0.166306
-0.151184
-0.131933
-0.109343
-0.0839143
-0.055962
-0.0257823
0.00617067
0.0391246
0.071822
0.102397
0.128416
0.146911
0.153201
0.139087
0.104192
-0.272973
-0.303871
-0.307943
-0.291012
-0.265035
-0.234791
-0.201742
-0.166416
-0.12881
-0.0885675
-0.0452382
0.00148412
0.0515283
0.104152
0.157634
0.209081
0.254091
0.284442
0.284667
0.24897
-0.524954
-0.536189
-0.505232
-0.450805
-0.391863
-0.33446
-0.279502
-0.226385
-0.173719
-0.119662
-0.0622213
0.000534311
0.0702275
0.14788
0.233399
0.324867
0.417285
0.498936
0.54581
0.538939
-1.09706
-0.944676
-0.779523
-0.638999
-0.52088
-0.421175
-0.336764
-0.263447
-0.19645
-0.131074
-0.0627906
0.0129104
0.100443
0.204355
0.328944
0.47713
0.648643
0.840868
1.04918
1.23247
-2.76822
-1.79752
-1.13966
-0.765044
-0.531122
-0.375742
-0.271438
-0.198991
-0.143893
-0.095569
-0.0457108
0.0133481
0.0903384
0.196421
0.347022
0.56237
0.868157
1.31587
2.03251
3.04343
)
;

boundaryField
{
    movingWall
    {
        type            zeroGradient;
    }
    fixedWalls
    {
        type            zeroGradient;
    }
    frontAndBack
    {
        type            empty;
    }
}


// ************************************************************************* //
