/*--------------------------------*- C++ -*----------------------------------*\
  =========                 |
  \\      /  F ield         | OpenFOAM: The Open Source CFD Toolbox
   \\    /   O peration     | Website:  https://openfoam.org
    \\  /    A nd           | Version:  9
     \\/     M anipulation  |
\*---------------------------------------------------------------------------*/
FoamFile
{
    format      ascii;
    class       surfaceScalarField;
    location    "0.5";
    object      phi;
}
// * * * * * * * * * * * * * * * * * * * * * * * * * * * * * * * * * * * * * //

dimensions      [ 0 3 -1 0 0 0 0 ];

internalField   nonuniform List<scalar> 
760
(
8.96756e-10
-9.20887e-10
3.80041e-09
-2.90373e-09
8.01196e-09
-4.21163e-09
1.27421e-08
-4.73017e-09
1.73744e-08
-4.63205e-09
2.14881e-08
-4.11334e-09
2.4831e-08
-3.34234e-09
2.72743e-08
-2.44271e-09
2.87651e-08
-1.49044e-09
2.92864e-08
-5.21254e-10
2.88311e-08
4.55062e-10
2.73939e-08
1.43673e-09
2.49823e-08
2.41114e-09
2.16445e-08
3.33745e-09
1.75113e-08
4.13329e-09
1.28431e-08
4.66879e-09
8.07277e-09
4.77122e-09
3.83038e-09
4.24342e-09
9.15083e-10
2.91619e-09
9.15518e-10
2.86558e-09
-3.78633e-09
9.01196e-09
-9.05008e-09
1.67474e-08
-1.19472e-08
2.48433e-08
-1.28265e-08
3.24265e-08
-1.22158e-08
3.89498e-08
-1.06372e-08
4.41272e-08
-8.5203e-09
4.78516e-08
-6.16726e-09
5.01113e-08
-3.75001e-09
5.09225e-08
-1.33202e-09
5.02852e-08
1.09292e-09
4.81702e-08
3.55227e-09
4.45378e-08
6.04364e-09
3.93871e-08
8.48789e-09
3.28262e-08
1.06933e-08
2.51559e-08
1.2338e-08
1.69488e-08
1.29771e-08
9.10874e-09
1.20826e-08
2.89042e-09
9.13405e-09
3.80667e-09
3.34798e-09
-7.13427e-09
9.99882e-09
-1.57007e-08
1.76269e-08
-1.9575e-08
2.47885e-08
-1.99878e-08
3.07178e-08
-1.81451e-08
3.51594e-08
-1.50789e-08
3.82019e-08
-1.15632e-08
4.01131e-08
-8.07887e-09
4.11915e-08
-4.82883e-09
4.16519e-08
-1.79256e-09
4.15537e-08
1.19135e-09
4.07802e-08
4.32638e-09
3.90697e-08
7.75489e-09
3.60961e-08
1.14623e-08
3.15893e-08
1.52006e-08
2.54853e-08
1.8442e-08
1.8088e-08
2.0374e-08
1.02261e-08
1.99439e-08
3.40661e-09
1.59529e-08
7.21341e-09
2.76187e-09
-9.89634e-09
6.94359e-09
-1.98824e-08
1.00087e-08
-2.264e-08
1.07971e-08
-2.07759e-08
9.18635e-09
-1.65339e-08
5.77234e-09
-1.16645e-08
1.55746e-09
-7.34811e-09
-2.34433e-09
-4.17713e-09
-4.96108e-09
-2.21241e-09
-5.65465e-09
-1.09946e-09
-4.23738e-09
-2.26385e-10
-1.00573e-09
1.09449e-09
3.31126e-09
3.43803e-09
7.68452e-09
7.08953e-09
1.0989e-08
1.18968e-08
1.2263e-08
1.71687e-08
1.09992e-08
2.16383e-08
7.44532e-09
2.34979e-08
2.8975e-09
2.05006e-08
1.01106e-08
7.32843e-10
-1.06292e-08
-1.82633e-09
-1.73235e-08
-9.91172e-09
-1.45548e-08
-2.36456e-08
-7.04225e-09
-4.16488e-08
1.46932e-09
-6.15952e-08
8.28212e-09
-8.07476e-08
1.18047e-08
-9.64419e-08
1.15176e-08
-1.06498e-07
7.84438e-09
-1.09528e-07
1.92982e-09
-1.05115e-07
-4.63978e-09
-9.38709e-08
-1.01496e-08
-7.73544e-08
-1.3079e-08
-5.78574e-08
-1.24078e-08
-3.80787e-08
-7.8819e-09
-2.06911e-08
-2.18534e-10
-7.87431e-09
8.82205e-09
-7.66587e-10
1.63906e-08
1.03116e-09
1.87031e-08
1.11416e-08
-3.72395e-09
-6.9051e-09
-1.99635e-08
-1.08408e-09
-4.97482e-08
1.52296e-08
-9.09212e-08
3.41305e-08
-1.39226e-07
4.97737e-08
-1.89246e-07
5.83022e-08
-2.35256e-07
5.78141e-08
-2.71987e-07
4.82486e-08
-2.9526e-07
3.11185e-08
-3.02452e-07
9.12223e-09
-2.9277e-07
-1.43213e-08
-2.67336e-07
-3.55836e-08
-2.29065e-07
-5.13508e-08
-1.82344e-07
-5.9129e-08
-1.3253e-07
-5.76964e-08
-8.52852e-08
-4.74632e-08
-4.57719e-08
-3.06912e-08
-1.78357e-08
-1.15454e-08
-3.09997e-09
3.96776e-09
8.04184e-09
-1.22833e-08
5.37827e-09
-5.35062e-08
4.01389e-08
-1.21811e-07
8.35339e-08
-2.10697e-07
1.23017e-07
-3.1088e-07
1.49957e-07
-4.11783e-07
1.59205e-07
-5.02849e-07
1.4888e-07
-5.74682e-07
1.20081e-07
-6.19969e-07
7.64058e-08
-6.34155e-07
2.3308e-08
-6.15843e-07
-3.2633e-08
-5.66922e-07
-8.45038e-08
-4.92403e-07
-1.2587e-07
-3.99959e-07
-1.51572e-07
-2.99194e-07
-1.58462e-07
-2.00635e-07
-1.46022e-07
-1.14526e-07
-1.168e-07
-4.94857e-08
-7.65857e-08
-1.10501e-08
-3.44677e-08
-3.00806e-09
-2.7503e-08
3.2881e-08
-1.11471e-07
1.24107e-07
-2.44171e-07
2.16234e-07
-4.11465e-07
2.90311e-07
-5.95784e-07
3.34276e-07
-7.78398e-07
3.41819e-07
-9.41325e-07
3.11807e-07
-1.06894e-06
2.47692e-07
-1.14923e-06
1.56698e-07
-1.17475e-06
4.88284e-08
-1.14315e-06
-6.42307e-08
-1.05739e-06
-1.70266e-07
-9.25521e-07
-2.57738e-07
-7.60116e-07
-3.16977e-07
-5.77235e-07
-3.41342e-07
-3.95011e-07
-3.28246e-07
-2.31858e-07
-2.79953e-07
-1.04413e-07
-2.0403e-07
-2.52298e-08
-1.13651e-07
-2.82377e-08
-5.30233e-08
8.59041e-08
-2.06374e-07
2.77458e-07
-4.41495e-07
4.51354e-07
-7.31571e-07
5.80386e-07
-1.04606e-06
6.48767e-07
-1.35397e-06
6.49728e-07
-1.62645e-06
5.84287e-07
-1.83892e-06
4.60161e-07
-1.97269e-06
2.90466e-07
-2.01613e-06
9.22681e-08
-1.96541e-06
-1.14948e-07
-1.82481e-06
-3.10871e-07
-1.60651e-06
-4.7603e-07
-1.32997e-06
-5.93516e-07
-1.0206e-06
-6.50713e-07
-7.07888e-07
-6.40962e-07
-4.22875e-07
-5.64966e-07
-1.95131e-07
-4.31773e-07
-4.91705e-08
-2.59611e-07
-7.74082e-08
-9.36906e-08
1.79595e-07
-3.54409e-07
5.38176e-07
-7.44988e-07
8.41933e-07
-1.21861e-06
1.05401e-06
-1.72537e-06
1.15553e-06
-2.21673e-06
1.14109e-06
-2.64878e-06
1.01635e-06
-2.98481e-06
7.96188e-07
-3.1971e-06
5.02757e-07
-3.2683e-06
1.6347e-07
-3.1923e-06
-1.90949e-07
-2.97469e-06
-5.28483e-07
-2.63276e-06
-8.17959e-07
-2.19492e-06
-1.03136e-06
-1.69932e-06
-1.14631e-06
-1.1916e-06
-1.14868e-06
-7.21576e-07
-1.03499e-06
-3.38944e-07
-8.14406e-07
-8.78739e-08
-5.10681e-07
-1.65282e-07
-1.5548e-07
3.35075e-07
-5.74751e-07
9.57447e-07
-1.19036e-06
1.45755e-06
-1.92533e-06
1.78897e-06
-2.70223e-06
1.93243e-06
-3.44883e-06
1.88768e-06
-4.10174e-06
1.66926e-06
-4.60896e-06
1.30341e-06
-4.93155e-06
8.25342e-07
-5.04481e-06
2.76732e-07
-4.93921e-06
-2.96549e-07
-4.62106e-06
-8.4663e-07
-4.11296e-06
-1.32606e-06
-3.45372e-06
-1.69061e-06
-2.69743e-06
-1.9026e-06
-1.91131e-06
-1.9348e-06
-1.17181e-06
-1.77448e-06
-5.5892e-07
-1.4273e-06
-1.48242e-07
-9.21358e-07
-3.13524e-07
-2.45078e-07
5.80153e-07
-8.87461e-07
1.59983e-06
-1.81253e-06
2.38261e-06
-2.89964e-06
2.87608e-06
-4.0343e-06
3.06709e-06
-5.11451e-06
2.96789e-06
-6.05399e-06
2.60874e-06
-6.78372e-06
2.03314e-06
-7.2525e-06
1.29412e-06
-7.42729e-06
4.51519e-07
-7.29375e-06
-4.30091e-07
-6.85718e-06
-1.2832e-06
-6.1438e-06
-2.03943e-06
-5.20207e-06
-2.63234e-06
-4.10328e-06
-3.00139e-06
-2.94078e-06
-3.0973e-06
-1.82658e-06
-2.88869e-06
-8.84612e-07
-2.36927e-06
-2.39624e-07
-1.56635e-06
-5.53148e-07
-3.69177e-07
9.4933e-07
-1.30981e-06
2.54046e-06
-2.63593e-06
3.70873e-06
-4.166e-06
4.40615e-06
-5.73857e-06
4.63967e-06
-7.21818e-06
4.4475e-06
-8.49604e-06
3.8866e-06
-9.48842e-06
3.02552e-06
-1.01343e-05
1.93998e-06
-1.03934e-05
7.1062e-07
-1.02456e-05
-5.77896e-07
-9.69177e-06
-1.83701e-06
-8.75657e-06
-2.97463e-06
-7.49223e-06
-3.89668e-06
-5.98303e-06
-4.51059e-06
-4.34845e-06
-4.73188e-06
-2.74327e-06
-4.49386e-06
-1.35196e-06
-3.76058e-06
-3.7456e-07
-2.54375e-06
-9.27708e-07
-5.3425e-07
1.48358e-06
-1.85226e-06
3.85847e-06
-3.66082e-06
5.51729e-06
-5.69583e-06
6.44116e-06
-7.74173e-06
6.68556e-06
-9.63295e-06
6.33873e-06
-1.12476e-05
5.50124e-06
-1.24985e-05
4.27641e-06
-1.33247e-05
2.76622e-06
-1.36851e-05
1.071e-06
-1.35547e-05
-7.08308e-07
-1.29251e-05
-2.46663e-06
-1.18085e-05
-4.09115e-06
-1.02463e-05
-5.4589e-06
-8.31963e-06
-6.4373e-06
-6.16193e-06
-6.88957e-06
-3.96895e-06
-6.68684e-06
-2.00099e-06
-5.72854e-06
-5.69973e-07
-3.97476e-06
-1.49768e-06
-7.49732e-07
2.23331e-06
-2.51821e-06
5.62695e-06
-4.84641e-06
7.84549e-06
-7.36242e-06
8.95718e-06
-9.7999e-06
9.12304e-06
-1.19837e-05
8.52256e-06
-1.38065e-05
7.32396e-06
-1.52051e-05
5.67505e-06
-1.61419e-05
3.70303e-06
-1.65903e-05
1.51942e-06
-1.65268e-05
-7.71817e-07
-1.59289e-05
-3.06449e-06
-1.47805e-05
-5.2396e-06
-1.30841e-05
-7.15525e-06
-1.08823e-05
-8.63915e-06
-8.28504e-06
-9.48682e-06
-5.50169e-06
-9.47019e-06
-2.86756e-06
-8.36267e-06
-8.49687e-07
-5.99264e-06
-2.34737e-06
-1.04084e-06
3.27415e-06
-3.31248e-06
7.89858e-06
-6.08352e-06
1.06165e-05
-8.8573e-06
1.1731e-05
-1.13548e-05
1.16206e-05
-1.34495e-05
1.06172e-05
-1.51071e-05
8.98158e-06
-1.63396e-05
6.90752e-06
-1.71717e-05
4.53512e-06
-1.76186e-05
1.96636e-06
-1.76727e-05
-7.17736e-07
-1.7298e-05
-3.43922e-06
-1.64333e-05
-6.1043e-06
-1.50063e-05
-8.58223e-06
-1.29621e-05
-1.06834e-05
-1.03099e-05
-1.2139e-05
-7.18975e-06
-1.25903e-05
-3.95469e-06
-1.15977e-05
-1.24769e-06
-8.69963e-06
-3.59506e-06
-1.46671e-06
4.74086e-06
-4.21755e-06
1.06494e-05
-7.06491e-06
1.34639e-05
-9.4424e-06
1.41084e-05
-1.11965e-05
1.33747e-05
-1.23773e-05
1.1798e-05
-1.31197e-05
9.72398e-06
-1.35755e-05
7.36337e-06
-1.38743e-05
4.8339e-06
-1.41011e-05
2.19315e-06
-1.42838e-05
-5.35085e-07
-1.43853e-05
-3.33768e-06
-1.43003e-05
-6.18928e-06
-1.38599e-05
-9.02259e-06
-1.2853e-05
-1.16903e-05
-1.10771e-05
-1.3915e-05
-8.4359e-06
-1.52315e-05
-5.10503e-06
-1.49286e-05
-1.79545e-06
-1.20092e-05
-5.3905e-06
-2.11524e-06
6.8561e-06
-4.85281e-06
1.3387e-05
-6.55508e-06
1.51662e-05
-6.99858e-06
1.45519e-05
-6.48193e-06
1.2858e-05
-5.40712e-06
1.07232e-05
-4.14896e-06
8.46582e-06
-3.01062e-06
6.22503e-06
-2.21366e-06
4.03694e-06
-1.90107e-06
1.88057e-06
-2.14029e-06
-2.95866e-07
-2.91895e-06
-2.55903e-06
-4.13395e-06
-4.97428e-06
-5.5724e-06
-7.58415e-06
-6.89609e-06
-1.03666e-05
-7.64865e-06
-1.31624e-05
-7.31829e-06
-1.55618e-05
-5.51504e-06
-1.67319e-05
-2.45586e-06
-1.50684e-05
-7.84636e-06
-2.82552e-06
9.68162e-06
-2.60228e-06
1.31637e-05
4.85031e-07
1.20789e-05
4.93488e-06
1.01021e-05
9.76109e-06
8.03179e-06
1.43406e-05
6.14368e-06
1.82848e-05
4.52163e-06
2.13593e-05
3.15055e-06
2.34247e-05
1.97155e-06
2.43948e-05
9.1049e-07
2.42116e-05
-1.12718e-07
2.28427e-05
-1.19006e-06
2.02835e-05
-2.41511e-06
1.65964e-05
-3.89705e-06
1.19668e-05
-5.73705e-06
6.78988e-06
-7.98548e-06
1.77354e-06
-1.05455e-05
-1.93703e-06
-1.30213e-05
-2.64679e-06
-1.43586e-05
-1.04932e-05
9.68162e-06
2.28454e-05
3.49242e-05
4.50263e-05
5.30581e-05
5.92018e-05
6.37234e-05
6.6874e-05
6.88455e-05
6.9756e-05
6.96433e-05
6.84532e-05
6.60381e-05
6.21411e-05
5.6404e-05
4.84186e-05
3.78731e-05
2.48518e-05
1.04932e-05
)
;

boundaryField
{
    movingWall
    {
        type            calculated;
        value           uniform 0;
    }
    fixedWalls
    {
        type            calculated;
        value           uniform 0;
    }
    frontAndBack
    {
        type            empty;
        value           nonuniform 0 ( );
    }
}


// ************************************************************************* //
