/*--------------------------------*- C++ -*----------------------------------*\
  =========                 |
  \\      /  F ield         | OpenFOAM: The Open Source CFD Toolbox
   \\    /   O peration     | Website:  https://openfoam.org
    \\  /    A nd           | Version:  7
     \\/     M anipulation  |
\*---------------------------------------------------------------------------*/
FoamFile
{
    version     2.0;
    format      ascii;
    class       volScalarField;
    location    "0.3";
    object      p;
}
// * * * * * * * * * * * * * * * * * * * * * * * * * * * * * * * * * * * * * //

dimensions      [0 2 -2 0 0 0 0];

internalField   nonuniform List<scalar> 
400
(
-2.84356e-09
-3.01068e-06
-8.98359e-06
-1.67584e-05
-2.481e-05
-3.20854e-05
-3.80254e-05
-4.25134e-05
-4.57864e-05
-4.83295e-05
-5.07645e-05
-5.37395e-05
-5.78193e-05
-6.3381e-05
-7.05149e-05
-7.89383e-05
-8.7943e-05
-9.64071e-05
-0.00010258
-0.000105485
2.0051e-05
1.39039e-05
6.40485e-06
-1.66852e-06
-1.0012e-05
-1.8222e-05
-2.60127e-05
-3.3302e-05
-4.01788e-05
-4.68495e-05
-5.35832e-05
-6.06529e-05
-6.82755e-05
-7.65583e-05
-8.54533e-05
-9.47225e-05
-0.000103931
-0.000112546
-0.000120092
-0.000125768
4.57229e-05
3.34735e-05
2.1544e-05
1.02942e-05
-5.97342e-07
-1.09513e-05
-2.06088e-05
-2.96121e-05
-3.81546e-05
-4.65195e-05
-5.50295e-05
-6.39955e-05
-7.36628e-05
-8.41646e-05
-9.5485e-05
-0.000107422
-0.000119572
-0.000131519
-0.000143298
-0.000154504
7.52352e-05
5.51078e-05
3.68879e-05
2.10007e-05
6.576e-06
-6.38034e-06
-1.78448e-05
-2.80673e-05
-3.74831e-05
-4.66202e-05
-5.60353e-05
-6.62507e-05
-7.76896e-05
-9.06192e-05
-0.000105105
-0.000120957
-0.000137694
-0.000154848
-0.000172731
-0.000190815
0.000106979
7.5287e-05
4.80518e-05
2.59185e-05
7.25537e-06
-8.17901e-06
-2.05872e-05
-3.05892e-05
-3.90741e-05
-4.70524e-05
-5.556e-05
-6.55641e-05
-7.78663e-05
-9.30148e-05
-0.00011123
-0.000132315
-0.000155595
-0.000180384
-0.000207194
-0.000235123
0.000138222
8.85482e-05
4.80278e-05
1.75778e-05
-5.76384e-06
-2.27227e-05
-3.39391e-05
-4.06983e-05
-4.46919e-05
-4.77852e-05
-5.18705e-05
-5.87236e-05
-6.98446e-05
-8.63102e-05
-0.00010864
-0.000136637
-0.000169283
-0.000205461
-0.000245882
-0.00028898
0.000161269
8.34899e-05
2.3391e-05
-1.78766e-05
-4.56764e-05
-6.16906e-05
-6.73809e-05
-6.51792e-05
-5.81223e-05
-4.95037e-05
-4.26593e-05
-4.07633e-05
-4.65569e-05
-6.20936e-05
-8.84861e-05
-0.000125605
-0.000171882
-0.000225425
-0.000287115
-0.000354183
0.000158448
3.73403e-05
-5.11838e-05
-0.000105975
-0.000136635
-0.000146628
-0.000138843
-0.000117569
-8.7972e-05
-5.56115e-05
-2.61576e-05
-5.14471e-06
2.48897e-06
-7.14194e-06
-3.63773e-05
-8.54124e-05
-0.000151868
-0.000232498
-0.000328125
-0.000433657
9.38428e-05
-9.26714e-05
-0.000221547
-0.000292319
-0.000321863
-0.000316746
-0.000282141
-0.000225098
-0.000153896
-7.74642e-05
-5.05783e-06
5.39033e-05
9.05819e-05
9.75701e-05
6.98644e-05
6.11353e-06
-9.03701e-05
-0.000214083
-0.00036516
-0.000533879
-0.000100667
-0.000383258
-0.00056784
-0.000656233
-0.000677391
-0.000642943
-0.000561318
-0.000443168
-0.00030077
-0.000147542
2.1526e-06
0.000132825
0.000228716
0.000275551
0.000262343
0.000184079
4.42246e-05
-0.00014849
-0.000392435
-0.000668613
-0.000547641
-0.00096638
-0.00122543
-0.00133221
-0.00133492
-0.00125286
-0.00109832
-0.000885579
-0.000630747
-0.000352046
-7.02308e-05
0.000191431
0.000404706
0.000542126
0.000579269
0.000500409
0.000304897
4.04829e-06
-0.000398138
-0.000864419
-0.00145612
-0.00205884
-0.00241428
-0.00254156
-0.00251818
-0.00237403
-0.00212472
-0.00178579
-0.00137387
-0.000909332
-0.000418442
7.32063e-05
0.000513684
0.000851617
0.00103337
0.00101423
0.00077404
0.000317815
-0.000352616
-0.00116519
-0.00315984
-0.00399626
-0.00447329
-0.00463212
-0.00459258
-0.00439845
-0.00406597
-0.00360543
-0.00302392
-0.00233088
-0.00154529
-0.000690807
0.000164145
0.000928003
0.00148662
0.00172234
0.00154904
0.00092647
-0.000173501
-0.00161744
-0.00614531
-0.00725613
-0.00788337
-0.00810701
-0.00810648
-0.00794479
-0.00763553
-0.00717306
-0.00653554
-0.00568966
-0.0046059
-0.00329572
-0.00178152
-0.000192894
0.0012556
0.00228406
0.00261625
0.0020344
0.000364708
-0.0021804
-0.0110371
-0.0124412
-0.013243
-0.0135894
-0.0137484
-0.0138172
-0.0138101
-0.0136984
-0.0134112
-0.0128339
-0.0118171
-0.010215
-0.00794252
-0.00503963
-0.00178857
0.00126405
0.00339415
0.00382815
0.00184062
-0.00239025
-0.0185071
-0.0201914
-0.0211316
-0.0216013
-0.0220263
-0.0225796
-0.0232975
-0.0241394
-0.0249829
-0.0256005
-0.0256377
-0.0246304
-0.0221468
-0.0178737
-0.0118568
-0.0047953
0.00188638
0.00610594
0.00550564
-0.000363577
-0.02927
-0.0311053
-0.0318109
-0.0320412
-0.0325391
-0.0335875
-0.0352562
-0.0375116
-0.0401985
-0.0429867
-0.0453057
-0.0462854
-0.0448152
-0.0400875
-0.0313059
-0.0186765
-0.00397037
0.0088635
0.0142606
0.0097829
-0.0453956
-0.0466114
-0.0452589
-0.0434605
-0.0427082
-0.0433205
-0.0452871
-0.0485132
-0.0527656
-0.0575744
-0.06214
-0.0652737
-0.0653872
-0.0605513
-0.0492355
-0.030461
-0.00520137
0.0216707
0.0413498
0.0472569
-0.071195
-0.0645113
-0.0572956
-0.052199
-0.0493188
-0.0484775
-0.0496175
-0.0525722
-0.0569428
-0.0620237
-0.0667089
-0.069429
-0.0680914
-0.0595326
-0.0412649
-0.011234
0.0308685
0.0816833
0.135039
0.175474
-0.222411
-0.126024
-0.0739084
-0.0505189
-0.0392239
-0.0342345
-0.033693
-0.0363256
-0.0408514
-0.0459137
-0.0499167
-0.0508416
-0.0462121
-0.0329527
-0.00584966
0.0406675
0.111495
0.20797
0.327064
0.465118
)
;

boundaryField
{
    movingWall
    {
        type            zeroGradient;
    }
    fixedWalls
    {
        type            zeroGradient;
    }
    frontAndBack
    {
        type            empty;
    }
}


// ************************************************************************* //
