/*--------------------------------*- C++ -*----------------------------------*\
  =========                 |
  \\      /  F ield         | OpenFOAM: The Open Source CFD Toolbox
   \\    /   O peration     | Website:  https://openfoam.org
    \\  /    A nd           | Version:  7
     \\/     M anipulation  |
\*---------------------------------------------------------------------------*/
FoamFile
{
    version     2.0;
    format      ascii;
    class       surfaceScalarField;
    location    "0.3";
    object      phi;
}
// * * * * * * * * * * * * * * * * * * * * * * * * * * * * * * * * * * * * * //

dimensions      [0 3 -1 0 0 0 0];

internalField   nonuniform List<scalar> 
760
(
5.83895e-10
-5.83676e-10
4.63495e-10
1.20323e-10
-9.07651e-10
1.37102e-09
-3.53423e-09
2.62643e-09
-7.03257e-09
3.49819e-09
-1.08638e-08
3.83108e-09
-1.44684e-08
3.60456e-09
-1.73551e-08
2.88657e-09
-1.91537e-08
1.79868e-09
-1.96449e-08
4.91185e-10
-1.87716e-08
-8.73205e-10
-1.66415e-08
-2.13e-09
-1.3519e-08
-3.12236e-09
-9.80693e-09
-3.71207e-09
-6.01085e-09
-3.79612e-09
-2.67981e-09
-3.33108e-09
-3.13687e-10
-2.36612e-09
7.72069e-10
-1.08567e-09
6.78761e-10
9.34754e-11
6.7895e-10
-9.11718e-10
3.27994e-10
-4.32011e-09
3.52852e-09
-1.03993e-08
7.45005e-09
-1.85981e-08
1.0825e-08
-2.8017e-08
1.2917e-08
-3.75812e-08
1.33952e-08
-4.62148e-08
1.22383e-08
-5.29769e-08
9.64879e-09
-5.71552e-08
5.9771e-09
-5.83237e-08
1.65996e-09
-5.63722e-08
-2.82451e-09
-5.15108e-08
-6.99122e-09
-4.4254e-08
-1.03791e-08
-3.53796e-08
-1.25865e-08
-2.58591e-08
-1.33167e-08
-1.67524e-08
-1.24379e-08
-9.06466e-09
-1.00537e-08
-3.57275e-09
-6.57729e-09
-6.74602e-10
-2.80428e-09
4.31028e-12
-2.39493e-09
2.72278e-09
-9.72816e-09
1.08615e-08
-2.13854e-08
1.91071e-08
-3.61263e-08
2.55657e-08
-5.23559e-08
2.91465e-08
-6.83649e-08
2.94042e-08
-8.25307e-08
2.64041e-08
-9.3473e-08
2.05912e-08
-1.00164e-07
1.26686e-08
-1.01999e-07
3.49456e-09
-9.88268e-08
-5.99644e-09
-9.09612e-08
-1.48568e-08
-7.91556e-08
-2.21847e-08
-6.45518e-08
-2.71902e-08
-4.85904e-08
-2.9278e-08
-3.28795e-08
-2.81487e-08
-1.90209e-08
-2.39122e-08
-8.40186e-09
-1.71962e-08
-1.96913e-09
-9.23689e-09
-1.96483e-09
-4.15835e-09
6.88101e-09
-1.64044e-08
2.31075e-08
-3.53269e-08
3.80296e-08
-5.87287e-08
4.89675e-08
-8.40463e-08
5.44641e-08
-1.08677e-07
5.40354e-08
-1.30235e-07
4.79618e-08
-1.46735e-07
3.70913e-08
-1.56723e-07
2.26572e-08
-1.59356e-07
6.12678e-09
-1.54435e-07
-1.09168e-08
-1.42422e-07
-2.68702e-08
-1.24405e-07
-4.02015e-08
-1.02039e-07
-4.95558e-08
-7.74312e-08
-5.38859e-08
-5.29692e-08
-5.26106e-08
-3.10933e-08
-4.5788e-08
-1.40142e-08
-3.42753e-08
-3.39335e-09
-1.9858e-08
-5.35803e-09
-6.791e-09
1.36719e-08
-2.63355e-08
4.26521e-08
-5.6055e-08
6.77493e-08
-9.23317e-08
8.52444e-08
-1.31162e-07
9.32944e-08
-1.68614e-07
9.14878e-08
-2.01161e-07
8.05089e-08
-2.25914e-07
6.18438e-08
-2.40774e-07
3.7518e-08
-2.44533e-07
9.88545e-09
-2.36917e-07
-1.85331e-08
-2.18605e-07
-4.51823e-08
-1.91201e-07
-6.76057e-08
-1.57152e-07
-8.36047e-08
-1.19596e-07
-9.14413e-08
-8.21237e-08
-9.00826e-08
-4.8446e-08
-7.94657e-08
-2.19824e-08
-6.07391e-08
-5.3848e-09
-3.64557e-08
-1.07428e-08
-1.10893e-08
2.47613e-08
-4.22465e-08
7.38096e-08
-8.89142e-08
1.14417e-07
-1.45225e-07
1.41556e-07
-2.04966e-07
1.53035e-07
-2.62199e-07
1.4872e-07
-3.11685e-07
1.29995e-07
-3.49173e-07
9.93317e-08
-3.71582e-07
5.99269e-08
-3.77123e-07
1.54258e-08
-3.65372e-07
-3.02838e-08
-3.37314e-07
-7.32404e-08
-2.95323e-07
-1.09596e-07
-2.43071e-07
-1.35857e-07
-1.85313e-07
-1.49199e-07
-1.27538e-07
-1.47858e-07
-7.54601e-08
-1.31544e-07
-3.43878e-08
-1.01811e-07
-8.4936e-09
-6.23495e-08
-1.92366e-08
-1.81441e-08
4.29055e-08
-6.78718e-08
1.23538e-07
-1.41237e-07
1.87783e-07
-2.28791e-07
2.29109e-07
-3.20942e-07
2.45186e-07
-4.08759e-07
2.36538e-07
-4.84475e-07
2.05711e-07
-5.41809e-07
1.56665e-07
-5.76177e-07
9.4294e-08
-5.84844e-07
2.40933e-08
-5.67059e-07
-4.80692e-08
-5.24158e-07
-1.16141e-07
-4.5961e-07
-1.74145e-07
-3.78929e-07
-2.16538e-07
-2.894e-07
-2.38728e-07
-1.99542e-07
-2.37716e-07
-1.18308e-07
-2.12778e-07
-5.40625e-08
-1.66057e-07
-1.34216e-08
-1.0299e-07
-3.26584e-08
-2.95338e-08
7.24395e-08
-1.08527e-07
2.02531e-07
-2.23371e-07
3.02627e-07
-3.59024e-07
3.64762e-07
-5.00854e-07
3.87017e-07
-6.35582e-07
3.71265e-07
-7.51791e-07
3.2192e-07
-8.40227e-07
2.45102e-07
-8.94e-07
1.48067e-07
-9.08786e-07
3.88788e-08
-8.83052e-07
-7.38028e-08
-8.18357e-07
-1.80836e-07
-7.19555e-07
-2.72947e-07
-5.94828e-07
-3.41265e-07
-4.55365e-07
-3.7819e-07
-3.14577e-07
-3.78505e-07
-1.86772e-07
-3.40583e-07
-8.54322e-08
-2.67397e-07
-2.123e-08
-1.67193e-07
-5.38883e-08
-4.75423e-08
1.19982e-07
-1.71724e-07
3.26713e-07
-3.4975e-07
4.80653e-07
-5.58122e-07
5.73134e-07
-7.74951e-07
6.03846e-07
-9.80878e-07
5.77192e-07
-1.15941e-06
5.00454e-07
-1.29704e-06
3.82731e-07
-1.38334e-06
2.34362e-07
-1.41119e-06
6.67349e-08
-1.37724e-06
-1.07751e-07
-1.28257e-06
-2.75511e-07
-1.13336e-06
-4.22161e-07
-9.41314e-07
-5.33307e-07
-7.23517e-07
-5.95988e-07
-5.01303e-07
-6.00718e-07
-2.98109e-07
-5.43777e-07
-1.36348e-07
-4.29158e-07
-3.3801e-08
-2.69741e-07
-8.76891e-08
-7.52982e-08
1.9528e-07
-2.67479e-07
5.18894e-07
-5.39368e-07
7.52541e-07
-8.55182e-07
8.88948e-07
-1.18309e-06
9.31752e-07
-1.4957e-06
8.89809e-07
-1.76986e-06
7.74606e-07
-1.98616e-06
5.99033e-07
-2.12879e-06
3.76994e-07
-2.18574e-06
1.23689e-07
-2.14951e-06
-1.43991e-07
-2.01853e-06
-4.06488e-07
-1.79907e-06
-6.41624e-07
-1.50661e-06
-8.25766e-07
-1.16651e-06
-9.36082e-07
-8.12892e-07
-9.54339e-07
-4.85115e-07
-8.71553e-07
-2.22037e-07
-6.92237e-07
-5.48555e-08
-4.36922e-07
-1.42545e-07
-1.16637e-07
3.11917e-07
-4.0768e-07
8.09937e-07
-8.14414e-07
1.15928e-06
-1.28413e-06
1.35867e-06
-1.77229e-06
1.41991e-06
-2.24178e-06
1.3593e-06
-2.66138e-06
1.19421e-06
-3.00412e-06
9.4177e-07
-3.24624e-06
6.19112e-07
-3.36723e-06
2.44683e-07
-3.35104e-06
-1.60188e-07
-3.18801e-06
-5.69519e-07
-2.88021e-06
-9.49419e-07
-2.44468e-06
-1.2613e-06
-1.91672e-06
-1.46404e-06
-1.3501e-06
-1.52096e-06
-8.12193e-07
-1.40946e-06
-3.73376e-07
-1.13105e-06
-9.22048e-08
-7.18093e-07
-2.3475e-07
-1.75302e-07
4.87219e-07
-6.03359e-07
1.23799e-06
-1.19496e-06
1.75088e-06
-1.8756e-06
2.0393e-06
-2.58596e-06
2.13027e-06
-3.27872e-06
2.05207e-06
-3.91437e-06
1.82985e-06
-4.45725e-06
1.48466e-06
-4.87281e-06
1.03467e-06
-5.12663e-06
4.98503e-07
-5.18755e-06
-9.92684e-08
-5.02544e-06
-7.31633e-07
-4.62855e-06
-1.34631e-06
-4.00679e-06
-1.88305e-06
-3.20259e-06
-2.26824e-06
-2.29631e-06
-2.42723e-06
-1.40246e-06
-2.30332e-06
-6.52139e-07
-1.88138e-06
-1.62279e-07
-1.20795e-06
-3.97029e-07
-2.53038e-07
7.40258e-07
-8.58601e-07
1.84356e-06
-1.68714e-06
2.57942e-06
-2.63818e-06
2.99034e-06
-3.63742e-06
3.12951e-06
-4.62931e-06
3.04395e-06
-5.56839e-06
2.76894e-06
-6.41144e-06
2.32771e-06
-7.11133e-06
1.73456e-06
-7.6138e-06
1.00097e-06
-7.86099e-06
1.47923e-07
-7.78896e-06
-8.03668e-07
-7.35068e-06
-1.78459e-06
-6.52888e-06
-2.70485e-06
-5.35794e-06
-3.43919e-06
-3.94328e-06
-3.84189e-06
-2.46799e-06
-3.7786e-06
-1.17261e-06
-3.17676e-06
-2.97689e-07
-2.08287e-06
-6.94718e-07
-3.46786e-07
1.08704e-06
-1.16152e-06
2.65829e-06
-2.26458e-06
3.68248e-06
-3.52654e-06
4.25229e-06
-4.86049e-06
4.46346e-06
-6.20812e-06
4.39158e-06
-7.52446e-06
4.08528e-06
-8.76402e-06
3.56727e-06
-9.86975e-06
2.84029e-06
-1.07661e-05
1.89733e-06
-1.13547e-05
7.36554e-07
-1.15339e-05
-6.24506e-07
-1.11905e-05
-2.12796e-06
-1.02479e-05
-3.64752e-06
-8.69432e-06
-4.99273e-06
-6.62951e-06
-5.9067e-06
-4.30308e-06
-6.10503e-06
-2.1187e-06
-5.36114e-06
-5.57825e-07
-3.64375e-06
-1.25254e-06
-4.47985e-07
1.53503e-06
-1.47965e-06
3.68996e-06
-2.85294e-06
5.05577e-06
-4.40566e-06
5.80502e-06
-6.04256e-06
6.10036e-06
-7.71137e-06
6.0604e-06
-9.37833e-06
5.75224e-06
-1.10074e-05
5.19636e-06
-1.25442e-05
4.37711e-06
-1.39044e-05
3.2575e-06
-1.49666e-05
1.79876e-06
-1.55785e-05
-1.26661e-08
-1.55676e-05
-2.13878e-06
-1.47646e-05
-4.45061e-06
-1.30504e-05
-6.70687e-06
-1.04314e-05
-8.52569e-06
-7.13848e-06
-9.39796e-06
-3.72201e-06
-8.77761e-06
-1.04405e-06
-6.32171e-06
-2.29659e-06
-5.56751e-07
2.09178e-06
-1.78729e-06
4.9205e-06
-3.35564e-06
6.62412e-06
-5.05681e-06
7.50619e-06
-6.79358e-06
7.83714e-06
-8.53232e-06
7.79914e-06
-1.0266e-05
7.48594e-06
-1.19889e-05
6.91921e-06
-1.36783e-05
6.06651e-06
-1.52814e-05
4.86061e-06
-1.67038e-05
3.22115e-06
-1.77912e-05
1.07474e-06
-1.8355e-05
-1.57495e-06
-1.8154e-05
-4.65161e-06
-1.69114e-05
-7.9495e-06
-1.44092e-05
-1.10279e-05
-1.0642e-05
-1.31652e-05
-6.07339e-06
-1.33462e-05
-1.90908e-06
-1.0486e-05
-4.20568e-06
-7.54009e-07
2.84579e-06
-2.19607e-06
6.36256e-06
-3.78916e-06
8.21721e-06
-5.29769e-06
9.01471e-06
-6.65618e-06
9.19563e-06
-7.87333e-06
9.01629e-06
-8.98947e-06
8.60209e-06
-1.00567e-05
7.98647e-06
-1.11265e-05
7.13631e-06
-1.22384e-05
5.97248e-06
-1.34063e-05
4.38908e-06
-1.46024e-05
2.27084e-06
-1.56691e-05
-5.08232e-07
-1.64601e-05
-3.86064e-06
-1.65851e-05
-7.82454e-06
-1.55561e-05
-1.20569e-05
-1.28835e-05
-1.58378e-05
-8.44349e-06
-1.77862e-05
-3.20399e-06
-1.57255e-05
-7.40967e-06
-1.42052e-06
4.26631e-06
-3.34699e-06
8.28902e-06
-4.69333e-06
9.56355e-06
-5.32385e-06
9.64523e-06
-5.38449e-06
9.25627e-06
-5.04255e-06
8.67435e-06
-4.44863e-06
8.00817e-06
-3.74278e-06
7.28062e-06
-3.06426e-06
6.45778e-06
-2.55897e-06
5.46719e-06
-2.38036e-06
4.21047e-06
-2.6812e-06
2.57168e-06
-3.5994e-06
4.09966e-07
-5.08555e-06
-2.37449e-06
-6.97289e-06
-5.93719e-06
-8.75326e-06
-1.02765e-05
-9.52525e-06
-1.50658e-05
-8.18913e-06
-1.91223e-05
-4.19495e-06
-1.97197e-05
-1.16046e-05
-3.31593e-06
7.58224e-06
-4.5964e-06
9.56949e-06
-3.60913e-06
8.57629e-06
-1.33375e-06
7.36985e-06
1.59094e-06
6.33157e-06
4.81231e-06
5.45299e-06
8.10802e-06
4.71246e-06
1.13176e-05
4.07107e-06
1.43002e-05
3.47519e-06
1.69025e-05
2.8648e-06
1.89347e-05
2.17828e-06
2.0148e-05
1.3584e-06
2.01666e-05
3.91428e-07
1.88774e-05
-1.08538e-06
1.60081e-05
-3.06786e-06
1.14838e-05
-5.75222e-06
5.76802e-06
-9.35001e-06
3.2245e-07
-1.36767e-05
-2.19661e-06
-1.72006e-05
-1.38012e-05
7.58224e-06
1.71517e-05
2.5728e-05
3.30979e-05
3.94294e-05
4.48824e-05
4.95949e-05
5.3666e-05
5.71411e-05
6.00059e-05
6.21842e-05
6.35426e-05
6.39341e-05
6.28487e-05
5.97808e-05
5.40286e-05
4.46786e-05
3.10019e-05
1.38012e-05
)
;

boundaryField
{
    movingWall
    {
        type            calculated;
        value           uniform 0;
    }
    fixedWalls
    {
        type            calculated;
        value           uniform 0;
    }
    frontAndBack
    {
        type            empty;
        value           nonuniform 0();
    }
}


// ************************************************************************* //
