/*--------------------------------*- C++ -*----------------------------------*\
  =========                 |
  \\      /  F ield         | OpenFOAM: The Open Source CFD Toolbox
   \\    /   O peration     | Website:  https://openfoam.org
    \\  /    A nd           | Version:  7
     \\/     M anipulation  |
\*---------------------------------------------------------------------------*/
FoamFile
{
    version     2.0;
    format      ascii;
    class       volVectorField;
    location    "0.3";
    object      U;
}
// * * * * * * * * * * * * * * * * * * * * * * * * * * * * * * * * * * * * * //

dimensions      [0 1 -1 0 0 0 0];

internalField   nonuniform List<vector> 
400
(
(4.07345e-06 -9.72375e-06 0)
(7.78005e-06 -9.18211e-06 0)
(5.89354e-07 -2.56089e-07 0)
(-1.99808e-05 9.91517e-06 0)
(-5.16401e-05 1.77267e-05 0)
(-8.95059e-05 2.16571e-05 0)
(-0.000127856 2.14473e-05 0)
(-0.000161276 1.76007e-05 0)
(-0.000185364 1.10391e-05 0)
(-0.000197126 2.8818e-06 0)
(-0.000195162 -5.67962e-06 0)
(-0.000179733 -1.34503e-05 0)
(-0.000152728 -1.92833e-05 0)
(-0.000117543 -2.21518e-05 0)
(-7.88262e-05 -2.12774e-05 0)
(-4.20149e-05 -1.63479e-05 0)
(-1.25899e-05 -7.84617e-06 0)
(5.01939e-06 2.4845e-06 0)
(9.59906e-06 1.09272e-05 0)
(4.3729e-06 1.03671e-05 0)
(-1.55353e-06 -9.63442e-06 0)
(-1.97071e-05 1.7351e-05 0)
(-6.74164e-05 6.14449e-05 0)
(-0.000140845 0.00010302 0)
(-0.000231511 0.000131074 0)
(-0.000329104 0.000140625 0)
(-0.000422584 0.000130975 0)
(-0.000501603 0.000104385 0)
(-0.000557707 6.49846e-05 0)
(-0.000585103 1.79473e-05 0)
(-0.000581073 -3.1076e-05 0)
(-0.000546127 -7.63608e-05 0)
(-0.000483955 -0.000112461 0)
(-0.000401146 -0.000134621 0)
(-0.000306661 -0.000139351 0)
(-0.00021094 -0.000125224 0)
(-0.000124626 -9.3903e-05 0)
(-5.70988e-05 -5.1316e-05 0)
(-1.5171e-05 -9.06364e-06 0)
(-6.59544e-07 1.33036e-05 0)
(-6.57438e-06 2.33586e-05 0)
(-4.93031e-05 0.000124106 0)
(-0.000145605 0.000236275 0)
(-0.000281736 0.000328962 0)
(-0.00044095 0.000383947 0)
(-0.000606311 0.000393157 0)
(-0.000760926 0.000356506 0)
(-0.000889473 0.000279832 0)
(-0.000979681 0.000172956 0)
(-0.00102326 4.80815e-05 0)
(-0.00101638 -8.14309e-05 0)
(-0.000959881 -0.000202021 0)
(-0.000859179 -0.000300806 0)
(-0.000723919 -0.000366566 0)
(-0.000567292 -0.000390992 0)
(-0.000404898 -0.000370245 0)
(-0.000253086 -0.000306748 0)
(-0.000127248 -0.000210933 0)
(-4.11873e-05 -0.000102769 0)
(-4.90517e-06 -1.33889e-05 0)
(-1.21449e-05 8.61532e-05 0)
(-8.49556e-05 0.000312156 0)
(-0.000243543 0.000530248 0)
(-0.000462073 0.000695978 0)
(-0.000712484 0.000784081 0)
(-0.000968448 0.000784887 0)
(-0.00120483 0.000701126 0)
(-0.00139941 0.000544809 0)
(-0.00153473 0.000334269 0)
(-0.00159915 9.16685e-05 0)
(-0.00158741 -0.000158938 0)
(-0.00150084 -0.000393181 0)
(-0.00134729 -0.000587843 0)
(-0.0011407 -0.00072253 0)
(-0.000900237 -0.000781722 0)
(-0.000648837 -0.000757274 0)
(-0.000410983 -0.00065117 0)
(-0.000210507 -0.000478077 0)
(-7.02953e-05 -0.000267397 0)
(-9.09031e-06 -6.5094e-05 0)
(-2.05168e-05 0.000190112 0)
(-0.000138112 0.000614947 0)
(-0.000389221 0.000994495 0)
(-0.000730195 0.00126651 0)
(-0.00111617 0.00139813 0)
(-0.00150685 0.00137976 0)
(-0.0018648 0.00121994 0)
(-0.00215751 0.000940643 0)
(-0.00235972 0.000572939 0)
(-0.0024547 0.000153417 0)
(-0.00243496 -0.000278581 0)
(-0.00230254 -0.000683227 0)
(-0.00206897 -0.00102241 0)
(-0.00175478 -0.00126226 0)
(-0.0013884 -0.00137639 0)
(-0.00100414 -0.00134968 0)
(-0.000638969 -0.00118248 0)
(-0.000329355 -0.000894422 0)
(-0.000111179 -0.000527496 0)
(-1.47764e-05 -0.00014876 0)
(-3.46073e-05 0.000359566 0)
(-0.000224306 0.0010969 0)
(-0.000621512 0.00172223 0)
(-0.00115377 0.00215023 0)
(-0.00174999 0.00234027 0)
(-0.00234868 0.00228562 0)
(-0.002894 0.00200519 0)
(-0.003338 0.00153654 0)
(-0.00364358 0.000929723 0)
(-0.00378614 0.000242389 0)
(-0.00375449 -0.000463859 0)
(-0.00355139 -0.00112653 0)
(-0.00319374 -0.00168536 0)
(-0.00271213 -0.00208618 0)
(-0.00214941 -0.00228578 0)
(-0.0015578 -0.00225792 0)
(-0.000993999 -0.00199979 0)
(-0.000514369 -0.00153771 0)
(-0.000174922 -0.000931854 0)
(-2.36994e-05 -0.000280467 0)
(-5.84037e-05 0.00063721 0)
(-0.00036482 0.00186685 0)
(-0.000993729 0.00286708 0)
(-0.00182564 0.00352471 0)
(-0.00274848 0.00379318 0)
(-0.00366889 0.00367395 0)
(-0.00450386 0.00320359 0)
(-0.00518261 0.00244352 0)
(-0.00565027 0.0014717 0)
(-0.0058699 0.00037639 0)
(-0.00582377 -0.000748329 0)
(-0.0055146 -0.00180632 0)
(-0.00496642 -0.00270373 0)
(-0.00422455 -0.00335475 0)
(-0.00335404 -0.00368948 0)
(-0.00243542 -0.00366348 0)
(-0.00155719 -0.003268 0)
(-0.000807907 -0.00253899 0)
(-0.000276045 -0.00156395 0)
(-3.78398e-05 -0.000488206 0)
(-9.78017e-05 0.00109171 0)
(-0.000590249 0.00309579 0)
(-0.00158141 0.0046669 0)
(-0.00287648 0.00566222 0)
(-0.00430055 0.00603568 0)
(-0.00571367 0.005807 0)
(-0.00699372 0.00504165 0)
(-0.00803696 0.00383662 0)
(-0.00876203 0.00230983 0)
(-0.0091123 0.000592963 0)
(-0.00905785 -0.00117308 0)
(-0.00859818 -0.00284219 0)
(-0.00776496 -0.00426871 0)
(-0.00662365 -0.00531631 0)
(-0.00527252 -0.00587085 0)
(-0.00383697 -0.00585648 0)
(-0.00245758 -0.00525294 0)
(-0.00127675 -0.0041101 0)
(-0.000436839 -0.0025582 0)
(-6.00157e-05 -0.00081623 0)
(-0.000161572 0.00182976 0)
(-0.000944395 0.00504306 0)
(-0.00249055 0.00747752 0)
(-0.00448785 0.00896727 0)
(-0.00666814 0.00948242 0)
(-0.0088258 0.00907851 0)
(-0.0107848 0.00786666 0)
(-0.0123952 0.00599466 0)
(-0.0135367 0.00363485 0)
(-0.0141208 0.000977876 0)
(-0.0140937 -0.00177007 0)
(-0.0134423 -0.00438967 0)
(-0.0122015 -0.00665482 0)
(-0.0104604 -0.00834622 0)
(-0.0083643 -0.00927302 0)
(-0.00610903 -0.0093016 0)
(-0.00392216 -0.00838667 0)
(-0.00203942 -0.00659737 0)
(-0.000696963 -0.00413344 0)
(-9.52289e-05 -0.00133507 0)
(-0.000262081 0.00301224 0)
(-0.00148652 0.00808974 0)
(-0.00386136 0.0118147 0)
(-0.00689768 0.0140239 0)
(-0.0101946 0.0147359 0)
(-0.0134589 0.0140716 0)
(-0.0164447 0.012211 0)
(-0.0189403 0.00936992 0)
(-0.0207695 0.00578901 0)
(-0.021792 0.00173233 0)
(-0.0219075 -0.00250868 0)
(-0.0210668 -0.00661173 0)
(-0.0192893 -0.0102264 0)
(-0.0166808 -0.0129944 0)
(-0.013446 -0.0145862 0)
(-0.00988724 -0.0147536 0)
(-0.00637871 -0.0133916 0)
(-0.00332451 -0.0105898 0)
(-0.00113461 -0.0066636 0)
(-0.000153709 -0.00216409 0)
(-0.00041495 0.00487153 0)
(-0.00228807 0.0127712 0)
(-0.00585852 0.018394 0)
(-0.0103828 0.0216419 0)
(-0.015281 0.0226432 0)
(-0.0201527 0.0216314 0)
(-0.0246689 0.0188854 0)
(-0.0285429 0.014704 0)
(-0.0315215 0.0094008 0)
(-0.0333826 0.00331695 0)
(-0.0339389 -0.00315936 0)
(-0.0330537 -0.00957375 0)
(-0.0306789 -0.0153895 0)
(-0.0269007 -0.020016 0)
(-0.0219768 -0.0228654 0)
(-0.0163564 -0.0234509 0)
(-0.0106561 -0.0215129 0)
(-0.00559078 -0.017138 0)
(-0.00191278 -0.01083 0)
(-0.000258298 -0.00352344 0)
(-0.000636013 0.00772082 0)
(-0.00341688 0.0197889 0)
(-0.00863213 0.0281419 0)
(-0.0151918 0.032874 0)
(-0.0222911 0.0343306 0)
(-0.0294128 0.0329306 0)
(-0.0361462 0.0290881 0)
(-0.0421246 0.0231882 0)
(-0.0470002 0.0155982 0)
(-0.0504298 0.00670645 0)
(-0.0520771 -0.00302185 0)
(-0.0516224 -0.0129867 0)
(-0.0488353 -0.022403 0)
(-0.0436825 -0.0303069 0)
(-0.0364088 -0.0356338 0)
(-0.0276224 -0.0373905 0)
(-0.0183078 -0.0349172 0)
(-0.00974198 -0.0281727 0)
(-0.00337047 -0.0179368 0)
(-0.000461394 -0.00585129 0)
(-0.000933601 0.0119369 0)
(-0.00490099 0.029963 0)
(-0.0122317 0.0421279 0)
(-0.0213947 0.0489436 0)
(-0.0313262 0.051147 0)
(-0.0414063 0.0494521 0)
(-0.0511695 0.0444505 0)
(-0.0601909 0.0365955 0)
(-0.068028 0.0262416 0)
(-0.0741791 0.0137292 0)
(-0.0780723 -0.000492427 0)
(-0.0790796 -0.0157236 0)
(-0.076609 -0.0309142 0)
(-0.0702922 -0.0445607 0)
(-0.0601698 -0.0547754 0)
(-0.0469039 -0.0595431 0)
(-0.0319211 -0.0572176 0)
(-0.0174094 -0.0471888 0)
(-0.00617164 -0.0304957 0)
(-0.000879182 -0.0100452 0)
(-0.00129752 0.017892 0)
(-0.00667676 0.0440755 0)
(-0.0164769 0.0613439 0)
(-0.0286401 0.0709772 0)
(-0.0418292 0.0743723 0)
(-0.0553673 0.0727005 0)
(-0.0688004 0.0667841 0)
(-0.0817094 0.0570997 0)
(-0.0936019 0.043862 0)
(-0.103819 0.0271766 0)
(-0.111489 0.00725898 0)
(-0.115581 -0.0152944 0)
(-0.114968 -0.0392372 0)
(-0.108633 -0.0624332 0)
(-0.0960511 -0.0817792 0)
(-0.0775658 -0.093452 0)
(-0.0548112 -0.0936592 0)
(-0.0310785 -0.0799869 0)
(-0.0115008 -0.0531105 0)
(-0.00175961 -0.0179074 0)
(-0.00170088 0.0258294 0)
(-0.00857522 0.0625787 0)
(-0.0208757 0.0862496 0)
(-0.0359212 0.0993821 0)
(-0.0520969 0.104429 0)
(-0.0687408 0.103255 0)
(-0.0855146 0.0969926 0)
(-0.10212 0.0860809 0)
(-0.118138 0.0704225 0)
(-0.132888 0.0496274 0)
(-0.145336 0.0233528 0)
(-0.15408 -0.00825724 0)
(-0.157441 -0.0440447 0)
(-0.153635 -0.0813998 0)
(-0.141123 -0.115879 0)
(-0.11918 -0.141129 0)
(-0.0886955 -0.149569 0)
(-0.0533669 -0.134369 0)
(-0.0212464 -0.0932587 0)
(-0.0036486 -0.0328476 0)
(-0.00218696 0.0358348 0)
(-0.0105568 0.0853351 0)
(-0.0249225 0.116132 0)
(-0.0417729 0.132793 0)
(-0.0591942 0.139418 0)
(-0.0766433 0.138881 0)
(-0.0940434 0.13273 0)
(-0.111396 0.121349 0)
(-0.1286 0.104219 0)
(-0.145306 0.0802704 0)
(-0.160768 0.0483325 0)
(-0.173719 0.00769962 0)
(-0.182411 -0.0411655 0)
(-0.184643 -0.0957988 0)
(-0.177753 -0.1511 0)
(-0.159086 -0.198408 0)
(-0.127076 -0.225236 0)
(-0.0834855 -0.216668 0)
(-0.037543 -0.160989 0)
(-0.00772765 -0.0610241 0)
(-0.00329548 0.0485861 0)
(-0.0138054 0.112229 0)
(-0.0294812 0.148861 0)
(-0.0455761 0.166779 0)
(-0.0601025 0.17284 0)
(-0.0729561 0.171403 0)
(-0.0845448 0.164606 0)
(-0.0953941 0.152893 0)
(-0.106057 0.135458 0)
(-0.117023 0.110672 0)
(-0.128589 0.0765326 0)
(-0.140617 0.0312048 0)
(-0.152212 -0.0263254 0)
(-0.16197 -0.0953593 0)
(-0.167037 -0.17195 0)
(-0.162933 -0.247343 0)
(-0.144368 -0.30558 0)
(-0.107996 -0.321712 0)
(-0.0585219 -0.264756 0)
(-0.0153738 -0.113661 0)
(-0.00727291 0.0667684 0)
(-0.023947 0.141201 0)
(-0.0409918 0.177772 0)
(-0.0514355 0.191996 0)
(-0.0547378 0.193375 0)
(-0.0529703 0.187583 0)
(-0.0479751 0.177568 0)
(-0.0412207 0.164256 0)
(-0.0340818 0.147113 0)
(-0.0279622 0.124589 0)
(-0.0243383 0.0944646 0)
(-0.0247585 0.0541247 0)
(-0.0306824 0.000802659 0)
(-0.0427888 -0.0680013 0)
(-0.0599085 -0.152502 0)
(-0.078609 -0.248709 0)
(-0.0918353 -0.343563 0)
(-0.0905632 -0.407452 0)
(-0.0670911 -0.386823 0)
(-0.0235778 -0.203341 0)
(-0.01763 0.13637 0)
(-0.0443666 0.20884 0)
(-0.0450588 0.207624 0)
(-0.0270503 0.18992 0)
(0.0001817 0.170421 0)
(0.0315715 0.152171 0)
(0.0645115 0.135683 0)
(0.0972658 0.120463 0)
(0.128407 0.105398 0)
(0.156527 0.0889956 0)
(0.179997 0.0695006 0)
(0.196648 0.0449227 0)
(0.203202 0.0129774 0)
(0.197655 -0.0291368 0)
(0.177833 -0.0860331 0)
(0.141991 -0.163515 0)
(0.0909264 -0.263034 0)
(0.0299477 -0.367142 0)
(-0.0181019 -0.417471 0)
(-0.0123895 -0.284482 0)
(0.0935031 0.0950788 0)
(0.122503 0.132515 0)
(0.207313 0.125921 0)
(0.292838 0.110499 0)
(0.363914 0.0946172 0)
(0.422986 0.0802314 0)
(0.473511 0.0678067 0)
(0.517237 0.0572317 0)
(0.55487 0.0480769 0)
(0.586528 0.0397487 0)
(0.611782 0.0315727 0)
(0.629673 0.0228238 0)
(0.638395 0.012692 0)
(0.635572 0.000679722 0)
(0.616336 -0.0144618 0)
(0.574826 -0.0347705 0)
(0.504523 -0.0631714 0)
(0.391796 -0.107045 0)
(0.231557 -0.164239 0)
(0.124612 -0.148205 0)
)
;

boundaryField
{
    movingWall
    {
        type            fixedValue;
        value           uniform (1 0 0);
    }
    fixedWalls
    {
        type            noSlip;
    }
    frontAndBack
    {
        type            empty;
    }
}


// ************************************************************************* //
