/*--------------------------------*- C++ -*----------------------------------*\
  =========                 |
  \\      /  F ield         | OpenFOAM: The Open Source CFD Toolbox
   \\    /   O peration     | Website:  https://openfoam.org
    \\  /    A nd           | Version:  7
     \\/     M anipulation  |
\*---------------------------------------------------------------------------*/
FoamFile
{
    version     2.0;
    format      ascii;
    class       volScalarField;
    location    "0.1";
    object      p;
}
// * * * * * * * * * * * * * * * * * * * * * * * * * * * * * * * * * * * * * //

dimensions      [0 2 -2 0 0 0 0];

internalField   nonuniform List<scalar> 
400
(
2.2299e-09
-0.000941516
-0.00126997
-0.00120706
-0.000767036
7.42988e-05
0.00135936
0.0031329
0.00543463
0.00830228
0.0117762
0.0159015
0.0207202
0.0262459
0.0324019
0.0389079
0.045135
0.0500521
0.0524538
0.0514764
0.000223749
-0.000603753
-0.000854746
-0.000794562
-0.000388726
0.000409182
0.00164885
0.00337756
0.00563544
0.00845901
0.0118851
0.0159526
0.0206948
0.026115
0.0321294
0.0384635
0.0445171
0.0493303
0.0518099
0.0509794
0.000437063
-0.000387523
-0.000588636
-0.000540039
-0.000173445
0.000575722
0.00176534
0.00344578
0.00565703
0.00843335
0.0118077
0.0158144
0.0204836
0.0258208
0.0317554
0.0380412
0.0441119
0.0490291
0.0516658
0.0507598
0.000563601
-0.000325038
-0.000507418
-0.000480973
-0.000157913
0.000540255
0.00167923
0.00331216
0.0054779
0.00820702
0.0115277
0.0154705
0.0200667
0.0253339
0.0312325
0.0375671
0.0438196
0.0490448
0.0519634
0.0509209
0.000544792
-0.00042955
-0.000611473
-0.000615508
-0.000338906
0.000308483
0.0013992
0.00298818
0.00511174
0.007795
0.0110596
0.0149318
0.0194452
0.0246354
0.0305066
0.0369361
0.0434831
0.0492019
0.0525815
0.0514932
0.000325611
-0.000736953
-0.000925946
-0.000963097
-0.000731197
-0.000129692
0.000919762
0.00247259
0.00456096
0.0072025
0.0104102
0.0142039
0.0186193
0.0237122
0.0295395
0.0360751
0.0429987
0.0494031
0.0534819
0.0525649
-0.000136055
-0.00128396
-0.00147807
-0.001544
-0.0013496
-0.000784369
0.000235147
0.00176362
0.00382733
0.00643414
0.00958561
0.0132923
0.0175891
0.0225502
0.0282893
0.0348993
0.0422429
0.0495347
0.0546332
0.0543013
-0.000874924
-0.00210244
-0.00228959
-0.00237283
-0.00220375
-0.00166124
-0.000656803
0.00086248
0.0029152
0.00549699
0.00859457
0.0122048
0.0163555
0.0211326
0.0267017
0.0332909
0.0410262
0.0493933
0.0559443
0.0569392
-0.00192685
-0.00322352
-0.00337987
-0.00346179
-0.00330131
-0.00276453
-0.00175711
-0.000228537
0.00183027
0.00439991
0.00744832
0.0109527
0.0149241
0.0194464
0.024718
0.0311015
0.0390717
0.0486217
0.0571748
0.0607111
-0.00333732
-0.00468192
-0.00476876
-0.00482306
-0.00464997
-0.00409856
-0.00306668
-0.00150656
0.000579561
0.00315434
0.00616243
0.00955417
0.0133113
0.0174928
0.0222925
0.0281748
0.0360225
0.0466589
0.0578028
0.0656674
-0.00517109
-0.00651913
-0.00647698
-0.00646844
-0.00625667
-0.00566654
-0.0045848
-0.00296633
-0.000826504
0.00177654
0.00475981
0.00803941
0.0115521
0.0153034
0.019424
0.0244028
0.0315195
0.0428051
0.0569802
0.0715047
-0.0075258
-0.00878526
-0.00852409
-0.00840618
-0.00812378
-0.00746638
-0.00630469
-0.0045958
-0.00236995
0.00029148
0.00327427
0.00645432
0.00970776
0.0129561
0.0161926
0.0198196
0.0253906
0.0365268
0.0538544
0.0776507
-0.0105538
-0.0115383
-0.0109218
-0.0106326
-0.0102398
-0.00948082
-0.00820375
-0.00636706
-0.00401748
-0.00126112
0.00175459
0.00486295
0.00786722
0.0105823
0.0127885
0.0147011
0.0179146
0.0279754
0.0482779
0.083861
-0.0145
-0.0148361
-0.0136571
-0.0131128
-0.0125584
-0.0116566
-0.0102239
-0.00821906
-0.0057065
-0.00281696
0.000269289
0.00334641
0.00613911
0.00835449
0.00951192
0.00959775
0.0100087
0.01841
0.0414409
0.0913608
-0.0197748
-0.018707
-0.0166533
-0.0157384
-0.0149569
-0.0138647
-0.0122367
-0.0100293
-0.00732387
-0.0042733
-0.00108773
0.00199841
0.00463344
0.00644923
0.00670091
0.00523078
0.00320786
0.0102252
0.0359982
0.104386
-0.0271155
-0.0230823
-0.0197054
-0.0182569
-0.0171691
-0.0158451
-0.0140009
-0.0115834
-0.00868675
-0.00547874
-0.00219498
0.000918279
0.00344054
0.00499951
0.00464774
0.00244498
-0.000653764
0.00664335
0.0366117
0.130583
-0.0378992
-0.0277121
-0.0224184
-0.0201848
-0.0187198
-0.0171716
-0.015152
-0.0125813
-0.009556
-0.00624958
-0.00291814
0.0001983
0.00262158
0.00405143
0.0034661
0.001501
-0.000630711
0.0111906
0.0519975
0.177724
-0.0543326
-0.031844
-0.0238847
-0.0206534
-0.0188891
-0.0172804
-0.0152666
-0.0127119
-0.00970745
-0.00642848
-0.00315105
-0.000100239
0.00219891
0.00358074
0.00308094
0.00235823
0.00371486
0.0251666
0.0864066
0.253448
-0.0784985
-0.0316782
-0.0207619
-0.0179581
-0.0166657
-0.0155236
-0.0139503
-0.0117449
-0.00900829
-0.00594052
-0.00284662
4.76779e-05
0.00219443
0.00353705
0.00328389
0.00414395
0.00999709
0.0444797
0.133619
0.358188
-0.115078
-0.0204046
-0.00878298
-0.0108139
-0.0116723
-0.01184
-0.0112818
-0.00981695
-0.00760599
-0.00492107
-0.00211095
0.000562005
0.00256307
0.00383946
0.0038273
0.0057644
0.0143424
0.0584167
0.172251
0.463537
)
;

boundaryField
{
    movingWall
    {
        type            zeroGradient;
    }
    fixedWalls
    {
        type            zeroGradient;
    }
    frontAndBack
    {
        type            empty;
    }
}


// ************************************************************************* //
