/*--------------------------------*- C++ -*----------------------------------*\
  =========                 |
  \\      /  F ield         | OpenFOAM: The Open Source CFD Toolbox
   \\    /   O peration     | Website:  https://openfoam.org
    \\  /    A nd           | Version:  7
     \\/     M anipulation  |
\*---------------------------------------------------------------------------*/
FoamFile
{
    version     2.0;
    format      ascii;
    class       surfaceScalarField;
    location    "0.1";
    object      phi;
}
// * * * * * * * * * * * * * * * * * * * * * * * * * * * * * * * * * * * * * //

dimensions      [0 3 -1 0 0 0 0];

internalField   nonuniform List<scalar> 
760
(
-1.19302e-08
1.19302e-08
-8.50745e-08
7.31442e-08
-1.71547e-07
8.64725e-08
-2.55922e-07
8.43746e-08
-3.35353e-07
7.94309e-08
-4.09437e-07
7.40841e-08
-4.78054e-07
6.86175e-08
-5.41147e-07
6.30923e-08
-5.98793e-07
5.76463e-08
-6.51048e-07
5.2255e-08
-6.97492e-07
4.6445e-08
-7.36435e-07
3.89422e-08
-7.63648e-07
2.72133e-08
-7.70669e-07
7.02055e-09
-7.43255e-07
-2.74143e-08
-6.62185e-07
-8.10692e-08
-5.10741e-07
-1.51444e-07
-2.93833e-07
-2.16908e-07
-7.2812e-08
-2.21021e-07
-7.28121e-08
-7.46673e-08
8.65972e-08
-2.64776e-07
2.63252e-07
-4.84726e-07
3.06423e-07
-6.99263e-07
2.98911e-07
-8.9819e-07
2.78358e-07
-1.07922e-06
2.55116e-07
-1.24201e-06
2.31405e-07
-1.38683e-06
2.07914e-07
-1.51422e-06
1.85041e-07
-1.62439e-06
1.62418e-07
-1.71611e-06
1.38165e-07
-1.7851e-06
1.07939e-07
-1.82165e-06
6.37616e-08
-1.80777e-06
-6.85822e-09
-1.71542e-06
-1.1977e-07
-1.50954e-06
-2.86948e-07
-1.16323e-06
-4.9775e-07
-6.93934e-07
-6.86208e-07
-2.21962e-07
-6.92992e-07
-2.94774e-07
-1.38905e-07
2.25502e-07
-4.22429e-07
5.46776e-07
-7.42529e-07
6.26522e-07
-1.0513e-06
6.07679e-07
-1.33369e-06
5.60755e-07
-1.58616e-06
5.0758e-07
-1.80852e-06
4.5377e-07
-2.00182e-06
4.01214e-07
-2.1674e-06
3.50614e-07
-2.30592e-06
3.00944e-07
-2.41602e-06
2.48268e-07
-2.49226e-06
1.84179e-07
-2.52239e-06
9.38869e-08
-2.48424e-06
-4.50088e-08
-2.34389e-06
-2.60122e-07
-2.0592e-06
-5.71637e-07
-1.59705e-06
-9.59901e-07
-9.76281e-07
-1.30698e-06
-3.40658e-07
-1.32861e-06
-6.35433e-07
-1.9131e-07
4.16812e-07
-5.48118e-07
9.03584e-07
-9.40775e-07
1.01918e-06
-1.31412e-06
9.81023e-07
-1.65089e-06
8.97526e-07
-1.94734e-06
8.04033e-07
-2.20403e-06
7.10459e-07
-2.42307e-06
6.20256e-07
-2.6069e-06
5.34441e-07
-2.75709e-06
4.51137e-07
-2.8729e-06
3.64076e-07
-2.9492e-06
2.60476e-07
-2.97369e-06
1.18372e-07
-2.92351e-06
-9.51826e-08
-2.76263e-06
-4.21006e-07
-2.44361e-06
-8.90659e-07
-1.92301e-06
-1.4805e-06
-1.20731e-06
-2.02268e-06
-4.43564e-07
-2.09236e-06
-1.079e-06
-2.31488e-07
6.483e-07
-6.44549e-07
1.31664e-06
-1.08893e-06
1.46356e-06
-1.50491e-06
1.397e-06
-1.87496e-06
1.26758e-06
-2.19617e-06
1.12524e-06
-2.47029e-06
9.84579e-07
-2.70078e-06
8.50739e-07
-2.89137e-06
7.25036e-07
-3.04495e-06
6.0472e-07
-3.16215e-06
4.81273e-07
-3.23945e-06
3.37772e-07
-3.26646e-06
1.45382e-07
-3.22208e-06
-1.39563e-07
-3.07014e-06
-5.72948e-07
-2.75735e-06
-1.20344e-06
-2.22342e-06
-2.01442e-06
-1.44742e-06
-2.79868e-06
-5.62378e-07
-2.9774e-06
-1.64138e-06
-2.63133e-07
9.11434e-07
-7.20452e-07
1.77396e-06
-1.20234e-06
1.94545e-06
-1.64611e-06
1.84077e-06
-2.03538e-06
1.65685e-06
-2.36884e-06
1.4587e-06
-2.64981e-06
1.26555e-06
-2.88326e-06
1.08419e-06
-3.07444e-06
9.16216e-07
-3.22786e-06
7.5814e-07
-3.34617e-06
5.99579e-07
-3.42858e-06
4.20183e-07
-3.4683e-06
1.85104e-07
-3.44811e-06
-1.59751e-07
-3.33363e-06
-6.87434e-07
-3.06533e-06
-1.47175e-06
-2.5594e-06
-2.52035e-06
-1.74997e-06
-3.60811e-06
-7.31215e-07
-3.99615e-06
-2.37259e-06
-2.90934e-07
1.20237e-06
-7.85925e-07
2.26895e-06
-1.29666e-06
2.45619e-06
-1.75887e-06
2.30298e-06
-2.15843e-06
2.0564e-06
-2.49626e-06
1.79654e-06
-2.77755e-06
1.54684e-06
-3.00891e-06
1.31555e-06
-3.19724e-06
1.10455e-06
-3.34894e-06
9.0984e-07
-3.4692e-06
7.19834e-07
-3.56089e-06
5.1187e-07
-3.62237e-06
2.46592e-07
-3.64265e-06
-1.39478e-07
-3.59187e-06
-7.38211e-07
-3.40563e-06
-1.65799e-06
-2.97147e-06
-2.9545e-06
-2.15844e-06
-4.42114e-06
-9.84491e-07
-5.1701e-06
-3.35708e-06
-3.19483e-07
1.52185e-06
-8.5026e-07
2.79973e-06
-1.3852e-06
2.99113e-06
-1.86003e-06
2.77782e-06
-2.26404e-06
2.46041e-06
-2.60097e-06
2.13347e-06
-2.87811e-06
1.82398e-06
-3.10384e-06
1.54128e-06
-3.28678e-06
1.28748e-06
-3.43537e-06
1.05843e-06
-3.55766e-06
8.42126e-07
-3.66089e-06
6.15096e-07
-3.74999e-06
3.35696e-07
-3.82274e-06
-6.67359e-08
-3.85778e-06
-7.03169e-07
-3.78955e-06
-1.72621e-06
-3.47497e-06
-3.26908e-06
-2.69736e-06
-5.19875e-06
-1.35004e-06
-6.51742e-06
-4.70712e-06
-3.53081e-07
1.87493e-06
-9.21369e-07
3.36802e-06
-1.47816e-06
3.54792e-06
-1.96145e-06
3.2611e-06
-2.36532e-06
2.86428e-06
-2.69694e-06
2.46509e-06
-2.96592e-06
2.09297e-06
-3.18252e-06
1.75788e-06
-3.3571e-06
1.46206e-06
-3.50015e-06
1.20148e-06
-3.62263e-06
9.64606e-07
-3.73642e-06
7.2888e-07
-3.85401e-06
4.53291e-07
-3.98433e-06
6.35887e-08
-4.11914e-06
-5.68364e-07
-4.19767e-06
-1.64769e-06
-4.0487e-06
-3.41805e-06
-3.35357e-06
-5.89388e-06
-1.83234e-06
-8.03866e-06
-6.53946e-06
-3.9605e-07
2.27098e-06
-1.006e-06
3.97797e-06
-1.58282e-06
4.12474e-06
-2.07018e-06
3.74847e-06
-2.46876e-06
3.26286e-06
-2.78985e-06
2.78618e-06
-3.04568e-06
2.34879e-06
-3.24845e-06
1.96065e-06
-3.41025e-06
1.62386e-06
-3.5434e-06
1.33463e-06
-3.66142e-06
1.08263e-06
-3.78046e-06
8.47919e-07
-3.92062e-06
5.93457e-07
-4.10324e-06
2.46201e-07
-4.33708e-06
-3.34517e-07
-4.57321e-06
-1.41156e-06
-4.62059e-06
-3.37067e-06
-4.05359e-06
-6.46088e-06
-2.38928e-06
-9.70298e-06
-8.92873e-06
-4.53312e-07
2.7243e-06
-1.11009e-06
4.63474e-06
-1.70344e-06
4.71809e-06
-2.18804e-06
4.23306e-06
-2.57349e-06
3.64831e-06
-2.87606e-06
3.08875e-06
-3.11101e-06
2.58374e-06
-3.29265e-06
2.14229e-06
-3.43467e-06
1.76588e-06
-3.55078e-06
1.45074e-06
-3.65623e-06
1.18808e-06
-3.77011e-06
9.61802e-07
-3.9186e-06
7.41946e-07
-4.13432e-06
4.61926e-07
-4.44459e-06
-2.42458e-08
-4.81878e-06
-1.03738e-06
-5.06176e-06
-3.12769e-06
-4.65512e-06
-6.86752e-06
-2.91733e-06
-1.14408e-05
-1.18461e-05
-5.31134e-07
3.25543e-06
-1.23876e-06
5.34237e-06
-1.84018e-06
5.31951e-06
-2.30926e-06
4.70215e-06
-2.66773e-06
4.00678e-06
-2.93806e-06
3.35907e-06
-3.13919e-06
2.78488e-06
-3.28782e-06
2.29092e-06
-3.39905e-06
1.87711e-06
-3.4873e-06
1.53899e-06
-3.56816e-06
1.26895e-06
-3.66131e-06
1.05494e-06
-3.79547e-06
8.76107e-07
-4.01009e-06
6.76543e-07
-4.34875e-06
3.1442e-07
-4.80378e-06
-5.82353e-07
-5.20167e-06
-2.72979e-06
-4.97219e-06
-7.097e-06
-3.27757e-06
-1.31354e-05
-1.51236e-05
-6.38002e-07
3.89343e-06
-1.39515e-06
6.09952e-06
-1.98524e-06
5.9096e-06
-2.41416e-06
5.13107e-06
-2.72024e-06
4.31285e-06
-2.93412e-06
3.57296e-06
-3.07957e-06
2.93033e-06
-3.17603e-06
2.38738e-06
-3.23973e-06
1.94081e-06
-3.28477e-06
1.58403e-06
-3.32533e-06
1.30951e-06
-3.37837e-06
1.10799e-06
-3.4701e-06
9.6784e-07
-3.63875e-06
8.4519e-07
-3.93822e-06
6.13888e-07
-4.3847e-06
-1.35874e-07
-4.86393e-06
-2.25057e-06
-4.82735e-06
-7.13357e-06
-3.34476e-06
-1.4618e-05
-1.84684e-05
-7.85665e-07
4.6791e-06
-1.5767e-06
6.89055e-06
-2.11382e-06
6.44672e-06
-2.45534e-06
5.47259e-06
-2.66316e-06
4.52068e-06
-2.77924e-06
3.68904e-06
-2.83363e-06
2.98471e-06
-2.84864e-06
2.4024e-06
-2.84086e-06
1.93302e-06
-2.82262e-06
1.56579e-06
-2.80464e-06
1.29152e-06
-2.7978e-06
1.10115e-06
-2.8204e-06
9.90436e-07
-2.89988e-06
9.24673e-07
-3.09055e-06
8.04558e-07
-3.4294e-06
2.02973e-07
-3.90276e-06
-1.77721e-06
-4.08806e-06
-6.94827e-06
-3.03976e-06
-1.56663e-05
-2.15082e-05
-9.90223e-07
5.66932e-06
-1.76481e-06
7.66514e-06
-2.16344e-06
6.84535e-06
-2.33039e-06
5.63954e-06
-2.36197e-06
4.55225e-06
-2.31499e-06
3.64206e-06
-2.22626e-06
2.89598e-06
-2.11961e-06
2.29575e-06
-2.00983e-06
1.82325e-06
-1.9052e-06
1.46116e-06
-1.81075e-06
1.19708e-06
-1.7287e-06
1.0191e-06
-1.666e-06
9.27731e-07
-1.63166e-06
8.90337e-07
-1.66923e-06
8.42132e-07
-1.82936e-06
3.63099e-07
-2.21916e-06
-1.38741e-06
-2.66061e-06
-6.50681e-06
-2.30436e-06
-1.60225e-05
-2.38125e-05
-1.26838e-06
6.9377e-06
-1.89563e-06
8.29239e-06
-1.98748e-06
6.9372e-06
-1.83063e-06
5.48269e-06
-1.56781e-06
4.28943e-06
-1.26911e-06
3.34336e-06
-9.73228e-07
2.6001e-06
-6.9999e-07
2.02251e-06
-4.57465e-07
1.58072e-06
-2.46067e-07
1.24976e-06
-6.27159e-08
1.01373e-06
1.00284e-07
8.56103e-07
2.47761e-07
7.80253e-07
3.88825e-07
7.49274e-07
4.95976e-07
7.34981e-07
4.94283e-07
3.64792e-07
2.04005e-07
-1.09713e-06
-5.35352e-07
-5.76746e-06
-9.30788e-07
-1.56271e-05
-2.47433e-05
-1.60273e-06
8.54042e-06
-1.7688e-06
8.45847e-06
-1.24625e-06
6.41464e-06
-5.47492e-07
4.78393e-06
1.50125e-07
3.59181e-06
7.87624e-07
2.70586e-06
1.34205e-06
2.04567e-06
1.8101e-06
1.55446e-06
2.19901e-06
1.19182e-06
2.52137e-06
9.27393e-07
2.79116e-06
7.43943e-07
3.02552e-06
6.21737e-07
3.23882e-06
5.66952e-07
3.45197e-06
5.36121e-07
3.65497e-06
5.31984e-07
3.79227e-06
2.27497e-07
3.59118e-06
-8.96044e-07
2.50379e-06
-4.68006e-06
1.00533e-06
-1.41286e-05
-2.3738e-05
-1.74232e-06
1.02827e-05
-7.46078e-07
7.46223e-06
8.49294e-07
4.81927e-06
2.28543e-06
3.3478e-06
3.48582e-06
2.39141e-06
4.46938e-06
1.7223e-06
5.26035e-06
1.25471e-06
5.88913e-06
9.25679e-07
6.38747e-06
6.93474e-07
6.78487e-06
5.29993e-07
7.10777e-06
4.21047e-07
7.38018e-06
3.49329e-07
7.62501e-06
3.22118e-07
7.86047e-06
3.00666e-07
8.09102e-06
3.01431e-07
8.22738e-06
9.11386e-08
7.99822e-06
-6.66892e-07
6.54863e-06
-3.23047e-06
3.30762e-06
-1.08876e-05
-2.04304e-05
-2.60206e-09
1.02853e-05
3.22701e-06
4.23262e-06
5.96798e-06
2.0783e-06
7.94995e-06
1.36583e-06
9.4224e-06
9.18968e-07
1.05278e-05
6.16904e-07
1.13582e-05
4.24302e-07
1.19841e-05
2.99782e-07
1.246e-05
2.1762e-07
1.2827e-05
1.62976e-07
1.31189e-05
1.29078e-07
1.33601e-05
1.08155e-07
1.35785e-05
1.03773e-07
1.37807e-05
9.84156e-08
1.39834e-05
9.87312e-08
1.40607e-05
1.38306e-08
1.37248e-05
-3.30961e-07
1.19453e-05
-1.45097e-06
6.83295e-06
-5.7753e-06
-1.35974e-05
1.02853e-05
1.4518e-05
1.65963e-05
1.79621e-05
1.88811e-05
1.9498e-05
1.99223e-05
2.0222e-05
2.04397e-05
2.06026e-05
2.07317e-05
2.08399e-05
2.09436e-05
2.10421e-05
2.11408e-05
2.11546e-05
2.08237e-05
1.93727e-05
1.35974e-05
)
;

boundaryField
{
    movingWall
    {
        type            calculated;
        value           uniform 0;
    }
    fixedWalls
    {
        type            calculated;
        value           uniform 0;
    }
    frontAndBack
    {
        type            empty;
        value           nonuniform 0();
    }
}


// ************************************************************************* //
