/*--------------------------------*- C++ -*----------------------------------*\
  =========                 |
  \\      /  F ield         | OpenFOAM: The Open Source CFD Toolbox
   \\    /   O peration     | Website:  https://openfoam.org
    \\  /    A nd           | Version:  7
     \\/     M anipulation  |
\*---------------------------------------------------------------------------*/
FoamFile
{
    version     2.0;
    format      ascii;
    class       volVectorField;
    location    "0.1";
    object      U;
}
// * * * * * * * * * * * * * * * * * * * * * * * * * * * * * * * * * * * * * //

dimensions      [0 1 -1 0 0 0 0];

internalField   nonuniform List<vector> 
400
(
(8.44106e-05 -4.23057e-05 0)
(-0.00157158 0.000504156 0)
(-0.00511667 0.000616768 0)
(-0.00859787 0.000605442 0)
(-0.011887 0.000579602 0)
(-0.0149605 0.00055365 0)
(-0.017814 0.000526774 0)
(-0.0204466 0.000498182 0)
(-0.0228597 0.000469134 0)
(-0.025059 0.000440441 0)
(-0.0270416 0.000409528 0)
(-0.028772 0.000367209 0)
(-0.030141 0.000293207 0)
(-0.0309028 0.000151161 0)
(-0.0306017 -0.000111952 0)
(-0.0285395 -0.000547237 0)
(-0.0239233 -0.00114476 0)
(-0.0163386 -0.0017265 0)
(-0.00672717 -0.0017889 0)
(-0.000817984 -0.000467237 0)
(-0.000817091 0.000706079 0)
(-0.00601486 0.00289923 0)
(-0.0149688 0.00342075 0)
(-0.0238326 0.00334928 0)
(-0.032139 0.00314609 0)
(-0.0397461 0.00291899 0)
(-0.046618 0.00268557 0)
(-0.0527626 0.00245081 0)
(-0.0582 0.00221999 0)
(-0.0629534 0.00199117 0)
(-0.0670129 0.001745 0)
(-0.0702852 0.00143201 0)
(-0.0725096 0.000956451 0)
(-0.0731477 0.000162637 0)
(-0.0712697 -0.00115529 0)
(-0.0655436 -0.00316571 0)
(-0.0545668 -0.0057579 0)
(-0.0377507 -0.00812475 0)
(-0.0170779 -0.00824339 0)
(-0.00309068 -0.00313541 0)
(-0.00185926 0.00285842 0)
(-0.0101999 0.00767915 0)
(-0.0233171 0.00888947 0)
(-0.036135 0.00866224 0)
(-0.0480128 0.00804151 0)
(-0.0587184 0.00733398 0)
(-0.0682027 0.0066127 0)
(-0.076499 0.00590153 0)
(-0.0836615 0.00521166 0)
(-0.089743 0.00453087 0)
(-0.0947433 0.00380396 0)
(-0.0985465 0.00290772 0)
(-0.100823 0.00162037 0)
(-0.100902 -0.000398829 0)
(-0.0976506 -0.00357401 0)
(-0.0894612 -0.00821703 0)
(-0.0746341 -0.0140236 0)
(-0.0523669 -0.0191899 0)
(-0.0248561 -0.0194021 0)
(-0.00508291 -0.00879067 0)
(-0.00274489 0.00623498 0)
(-0.0136177 0.014207 0)
(-0.0298663 0.0161675 0)
(-0.045461 0.0156379 0)
(-0.0597229 0.0143801 0)
(-0.0723896 0.0129577 0)
(-0.0834281 0.011523 0)
(-0.0929132 0.0101288 0)
(-0.100945 0.00879244 0)
(-0.107617 0.00748562 0)
(-0.112961 0.00610715 0)
(-0.11688 0.00444588 0)
(-0.119053 0.00213558 0)
(-0.118797 -0.00137353 0)
(-0.114931 -0.00675554 0)
(-0.10571 -0.0145065 0)
(-0.0891309 -0.0241626 0)
(-0.0638477 -0.032854 0)
(-0.0315985 -0.0335783 0)
(-0.00693367 -0.0166639 0)
(-0.00342699 0.0105079 0)
(-0.0162659 0.021986 0)
(-0.0348501 0.0246333 0)
(-0.0523416 0.0236284 0)
(-0.0681141 0.0215398 0)
(-0.0819289 0.0192161 0)
(-0.0937962 0.0169014 0)
(-0.103844 0.0146819 0)
(-0.112226 0.0125809 0)
(-0.119089 0.0105521 0)
(-0.124515 0.00844668 0)
(-0.128468 0.00596586 0)
(-0.130697 0.00260002 0)
(-0.130603 -0.00241509 0)
(-0.127057 -0.0100338 0)
(-0.118232 -0.0210244 0)
(-0.101704 -0.0349248 0)
(-0.0751558 -0.0479309 0)
(-0.0391909 -0.0500721 0)
(-0.00920225 -0.0266056 0)
(-0.00396532 0.0154778 0)
(-0.0183701 0.0307314 0)
(-0.0387428 0.0339471 0)
(-0.0575323 0.0322795 0)
(-0.074227 0.0291838 0)
(-0.0886533 0.0258074 0)
(-0.100885 0.0224895 0)
(-0.111113 0.0193499 0)
(-0.119551 0.016418 0)
(-0.126405 0.0136305 0)
(-0.131829 0.0107962 0)
(-0.135879 0.00753862 0)
(-0.138432 0.00321687 0)
(-0.139052 -0.00314665 0)
(-0.136754 -0.0128272 0)
(-0.12969 -0.0270038 0)
(-0.114903 -0.0454976 0)
(-0.0886411 -0.06388 0)
(-0.0495607 -0.0689965 0)
(-0.0125986 -0.0392573 0)
(-0.00444997 0.0210242 0)
(-0.0202177 0.0402724 0)
(-0.0420597 0.0439019 0)
(-0.0617723 0.0413724 0)
(-0.0790148 0.0371044 0)
(-0.0937121 0.0325493 0)
(-0.106019 0.0281361 0)
(-0.116194 0.0240165 0)
(-0.124515 0.0202252 0)
(-0.131257 0.0166862 0)
(-0.136658 0.0131765 0)
(-0.140893 0.00926048 0)
(-0.144017 0.00418896 0)
(-0.145832 -0.00321748 0)
(-0.145615 -0.0145956 0)
(-0.141604 -0.0317125 0)
(-0.130282 -0.0550784 0)
(-0.106006 -0.0802003 0)
(-0.064509 -0.0907561 0)
(-0.017895 -0.0559551 0)
(-0.0049749 0.0271178 0)
(-0.0220871 0.0505311 0)
(-0.045258 0.0543745 0)
(-0.065669 0.0507658 0)
(-0.0832181 0.0451643 0)
(-0.0979605 0.0393197 0)
(-0.110145 0.0337401 0)
(-0.120107 0.0286035 0)
(-0.128189 0.0239498 0)
(-0.134737 0.0196964 0)
(-0.140084 0.0156034 0)
(-0.144542 0.011202 0)
(-0.14838 0.00567186 0)
(-0.151718 -0.00233794 0)
(-0.154229 -0.0148487 0)
(-0.15443 -0.0344099 0)
(-0.148329 -0.0627501 0)
(-0.128028 -0.0962097 0)
(-0.0852817 -0.11578 0)
(-0.0257246 -0.0786694 0)
(-0.00563453 0.0338176 0)
(-0.0242308 0.0615102 0)
(-0.0487098 0.0653015 0)
(-0.0696691 0.060367 0)
(-0.0873406 0.0532658 0)
(-0.101944 0.0460277 0)
(-0.113836 0.0392222 0)
(-0.123433 0.0330452 0)
(-0.131146 0.0275409 0)
(-0.137393 0.0226266 0)
(-0.142599 0.0180627 0)
(-0.147217 0.0133807 0)
(-0.151751 0.00774014 0)
(-0.156697 -0.00032423 0)
(-0.162272 -0.0132058 0)
(-0.167522 -0.0344213 0)
(-0.168194 -0.0675446 0)
(-0.15395 -0.111033 0)
(-0.111691 -0.144296 0)
(-0.0360583 -0.109791 0)
(-0.00653315 0.0412681 0)
(-0.0268875 0.073274 0)
(-0.0527083 0.0766491 0)
(-0.0740638 0.0700985 0)
(-0.0916562 0.0613192 0)
(-0.105908 0.0525839 0)
(-0.117302 0.0444979 0)
(-0.126339 0.0372644 0)
(-0.133502 0.0309285 0)
(-0.139274 0.025412 0)
(-0.144161 0.0204929 0)
(-0.148741 0.0157383 0)
(-0.15374 0.010352 0)
(-0.160044 0.00283912 0)
(-0.168516 -0.00950538 0)
(-0.178984 -0.031311 0)
(-0.18729 -0.0686645 0)
(-0.180752 -0.12377 0)
(-0.141081 -0.176146 0)
(-0.0474007 -0.151552 0)
(-0.00780195 0.0497049 0)
(-0.030305 0.0859225 0)
(-0.0574749 0.0883747 0)
(-0.0789799 0.0798586 0)
(-0.0961858 0.0692045 0)
(-0.109762 0.0588651 0)
(-0.12034 0.0494477 0)
(-0.128517 0.0411471 0)
(-0.134845 0.0340027 0)
(-0.139866 0.0279408 0)
(-0.144139 0.0227687 0)
(-0.148322 0.0181208 0)
(-0.153302 0.0133126 0)
(-0.16029 0.00692286 0)
(-0.17079 -0.0039505 0)
(-0.185582 -0.025132 0)
(-0.201099 -0.0658155 0)
(-0.202837 -0.133782 0)
(-0.168031 -0.210667 0)
(-0.0563196 -0.204932 0)
(-0.00962217 0.0594754 0)
(-0.0347628 0.0995588 0)
(-0.0631383 0.100375 0)
(-0.0843097 0.0894681 0)
(-0.100578 0.07672 0)
(-0.112918 0.0646672 0)
(-0.12214 0.0538751 0)
(-0.128958 0.0445088 0)
(-0.134 0.0365883 0)
(-0.137841 0.0300359 0)
(-0.141059 0.0246896 0)
(-0.14432 0.0202674 0)
(-0.148552 0.016252 0)
(-0.155114 0.0113959 0)
(-0.165989 0.00276761 0)
(-0.182914 -0.0166391 0)
(-0.203587 -0.059453 0)
(-0.212764 -0.140761 0)
(-0.185567 -0.246324 0)
(-0.0583356 -0.268403 0)
(-0.0122554 0.0710764 0)
(-0.0405849 0.11423 0)
(-0.0696398 0.112399 0)
(-0.0895072 0.0985805 0)
(-0.103809 0.0834967 0)
(-0.1139 0.069629 0)
(-0.120837 0.0574443 0)
(-0.125477 0.0470466 0)
(-0.128519 0.0384114 0)
(-0.130553 0.0314359 0)
(-0.132118 0.0259743 0)
(-0.133789 0.0218193 0)
(-0.136383 0.0186457 0)
(-0.141124 0.0154428 0)
(-0.15016 0.00945786 0)
(-0.165932 -0.00730241 0)
(-0.188298 -0.0507238 0)
(-0.20289 -0.144383 0)
(-0.187427 -0.280143 0)
(-0.0501129 -0.337595 0)
(-0.0160822 0.0852205 0)
(-0.0481197 0.129805 0)
(-0.0764765 0.123889 0)
(-0.093118 0.106522 0)
(-0.103543 0.0888539 0)
(-0.109616 0.0731143 0)
(-0.112725 0.0595926 0)
(-0.113898 0.0482795 0)
(-0.113889 0.0390641 0)
(-0.113251 0.0317819 0)
(-0.112422 0.0262731 0)
(-0.111779 0.0223654 0)
(-0.111877 0.0199084 0)
(-0.113485 0.0181189 0)
(-0.118531 0.0146594 0)
(-0.129581 0.000967416 0)
(-0.149648 -0.0411775 0)
(-0.166889 -0.143943 0)
(-0.169516 -0.307832 0)
(-0.0305873 -0.405968 0)
(-0.0216438 0.102944 0)
(-0.0576247 0.145728 0)
(-0.0820539 0.133693 0)
(-0.0917783 0.112024 0)
(-0.0949589 0.0915926 0)
(-0.0941272 0.0740736 0)
(-0.0910689 0.0594497 0)
(-0.0869491 0.0475102 0)
(-0.0824987 0.037996 0)
(-0.0781395 0.0306333 0)
(-0.0741211 0.0252111 0)
(-0.0705194 0.0215309 0)
(-0.0675555 0.0195658 0)
(-0.0652719 0.0186616 0)
(-0.0651679 0.017108 0)
(-0.068959 0.00627084 0)
(-0.0836266 -0.0323622 0)
(-0.100286 -0.138502 0)
(-0.12929 -0.325159 0)
(0.000722403 -0.464295 0)
(-0.0296233 0.125682 0)
(-0.0687758 0.160502 0)
(-0.082021 0.139529 0)
(-0.078147 0.112827 0)
(-0.0687105 0.0897784 0)
(-0.0568745 0.0709657 0)
(-0.0446507 0.0558434 0)
(-0.0331132 0.0438735 0)
(-0.0227539 0.0345806 0)
(-0.0136792 0.0275417 0)
(-0.00584365 0.0224709 0)
(0.00108915 0.019089 0)
(0.00715914 0.017439 0)
(0.0132274 0.016852 0)
(0.0178633 0.0163723 0)
(0.0215996 0.00792333 0)
(0.0127481 -0.0251466 0)
(-0.000559736 -0.126945 0)
(-0.0635576 -0.327902 0)
(0.0466995 -0.499904 0)
(-0.0403628 0.15476 0)
(-0.0782802 0.170016 0)
(-0.0647046 0.136538 0)
(-0.036671 0.105116 0)
(-0.00770348 0.0806658 0)
(0.0194933 0.0618836 0)
(0.0435077 0.0474989 0)
(0.0639541 0.0365439 0)
(0.0809901 0.0283008 0)
(0.0951074 0.0222044 0)
(0.106761 0.0179114 0)
(0.116836 0.0150534 0)
(0.125396 0.0137228 0)
(0.134397 0.0131323 0)
(0.141409 0.013072 0)
(0.150553 0.0065102 0)
(0.143478 -0.0192466 0)
(0.13375 -0.106662 0)
(0.0336254 -0.30662 0)
(0.114 -0.500254 0)
(-0.0506488 0.189588 0)
(-0.0672359 0.162659 0)
(0.00112541 0.115056 0)
(0.0645105 0.0836316 0)
(0.117421 0.0614343 0)
(0.161103 0.0453377 0)
(0.196403 0.0337061 0)
(0.22452 0.0252665 0)
(0.246747 0.0191558 0)
(0.26444 0.0147659 0)
(0.278499 0.011768 0)
(0.290463 0.00977513 0)
(0.300057 0.00892435 0)
(0.310624 0.0083806 0)
(0.317183 0.00847206 0)
(0.328908 0.00360776 0)
(0.317075 -0.0138458 0)
(0.308442 -0.0758832 0)
(0.170241 -0.250197 0)
(0.211657 -0.451324 0)
(-0.0262389 0.227977 0)
(0.0503078 0.126051 0)
(0.188923 0.0715681 0)
(0.283673 0.0483593 0)
(0.351395 0.0336398 0)
(0.402044 0.0234478 0)
(0.440089 0.016588 0)
(0.468671 0.011952 0)
(0.490214 0.00878995 0)
(0.506793 0.00662336 0)
(0.519515 0.00522407 0)
(0.53036 0.00431501 0)
(0.538486 0.00403012 0)
(0.548379 0.00376158 0)
(0.552317 0.00390679 0)
(0.563999 0.00114707 0)
(0.544405 -0.00840977 0)
(0.534144 -0.0396995 0)
(0.364007 -0.156187 0)
(0.357797 -0.329408 0)
(0.4038 0.135019 0)
(0.502144 0.0673255 0)
(0.623203 0.0315713 0)
(0.69661 0.0176741 0)
(0.74066 0.0107115 0)
(0.769848 0.00661444 0)
(0.789924 0.00419506 0)
(0.80396 0.00275619 0)
(0.813955 0.00188587 0)
(0.821398 0.0013483 0)
(0.826945 0.00104077 0)
(0.831857 0.000858082 0)
(0.835362 0.000851679 0)
(0.840448 0.0008175 0)
(0.841332 0.000867009 0)
(0.847653 0.000145166 0)
(0.829797 -0.00278662 0)
(0.817697 -0.0103607 0)
(0.675486 -0.0452443 0)
(0.614955 -0.118778 0)
)
;

boundaryField
{
    movingWall
    {
        type            fixedValue;
        value           uniform (1 0 0);
    }
    fixedWalls
    {
        type            noSlip;
    }
    frontAndBack
    {
        type            empty;
    }
}


// ************************************************************************* //
