/*--------------------------------*- C++ -*----------------------------------*\
  =========                 |
  \\      /  F ield         | OpenFOAM: The Open Source CFD Toolbox
   \\    /   O peration     | Website:  https://openfoam.org
    \\  /    A nd           | Version:  9
     \\/     M anipulation  |
\*---------------------------------------------------------------------------*/
FoamFile
{
    format      ascii;
    class       volScalarField;
    location    "0.5";
    object      p;
}
// * * * * * * * * * * * * * * * * * * * * * * * * * * * * * * * * * * * * * //

dimensions      [ 0 2 -2 0 0 0 0 ];

internalField   nonuniform List<scalar> 
400
(
1.96318e-08
-0.000483566
-0.00109268
-0.00181531
-0.00268157
-0.00374467
-0.00504393
-0.00659854
-0.00838547
-0.0102663
-0.0118392
-0.0122227
-0.00987876
-0.0027697
0.0107237
0.0300518
0.0505981
0.0644229
0.0660112
0.0574092
4.37326e-05
-0.000400761
-0.000938606
-0.00160819
-0.0024184
-0.00339901
-0.00456845
-0.00592887
-0.00744947
-0.00901115
-0.0102895
-0.0105613
-0.00849644
-0.00219536
0.0100428
0.0279586
0.0474956
0.0611199
0.0636018
0.0561075
0.000196757
-0.000276636
-0.0007622
-0.00138269
-0.00213693
-0.00303959
-0.00409582
-0.00530517
-0.00665933
-0.0081097
-0.00946762
-0.0101815
-0.00902586
-0.00401081
0.00690623
0.0239187
0.0433837
0.0579102
0.0616021
0.0541837
0.00043626
-0.000118709
-0.000572579
-0.00115183
-0.00185616
-0.00269293
-0.0036641
-0.00478704
-0.00611558
-0.00773199
-0.00963843
-0.0114418
-0.0118926
-0.0087151
0.000627982
0.0168217
0.0368305
0.0534262
0.059299
0.0519365
0.000725124
4.87562e-05
-0.000382565
-0.000928319
-0.00159121
-0.00237549
-0.00329047
-0.00439468
-0.00584662
-0.00791529
-0.0108273
-0.014307
-0.0169638
-0.016138
-0.00877769
0.00627676
0.0269557
0.0465352
0.0558694
0.0497767
0.0010155
0.000192182
-0.000222279
-0.000743705
-0.00137546
-0.00212142
-0.00300925
-0.00416325
-0.00588596
-0.00867201
-0.012972
-0.0185602
-0.0238161
-0.0256981
-0.0208515
-0.00723707
0.013907
0.0369331
0.0509211
0.0480995
0.00125224
0.000266521
-0.000134026
-0.000639162
-0.00124712
-0.00196286
-0.00284306
-0.00410023
-0.00621038
-0.00990773
-0.0158344
-0.0237425
-0.0317409
-0.0364499
-0.0342266
-0.0225576
-0.00144351
0.0248987
0.0443793
0.0470407
0.00136876
0.000214676
-0.000169062
-0.000659389
-0.00124031
-0.00191808
-0.00278772
-0.00416739
-0.00672112
-0.0114114
-0.01902
-0.0292177
-0.0398468
-0.0472665
-0.0476672
-0.0381618
-0.0176863
0.0113009
0.036501
0.0463911
0.00128543
-3.21744e-05
-0.000385216
-0.000848534
-0.00138005
-0.00198711
-0.00281099
-0.00428636
-0.00726441
-0.0129043
-0.0220698
-0.034313
-0.0472423
-0.0570326
-0.0598125
-0.0524676
-0.0331558
-0.00249026
0.0279075
0.0458826
0.000906385
-0.000554048
-0.000843715
-0.00124594
-0.00167879
-0.00215135
-0.00285836
-0.0043556
-0.00766736
-0.0141057
-0.0245631
-0.038457
-0.053212
-0.0648805
-0.0696114
-0.0641707
-0.0462896
-0.0148742
0.0196018
0.0457076
0.000113357
-0.00144167
-0.00160535
-0.00188221
-0.00213512
-0.00237753
-0.00286485
-0.00427339
-0.00777732
-0.0147927
-0.0261981
-0.0412754
-0.0573268
-0.0703191
-0.0764507
-0.0724592
-0.0559238
-0.0243203
0.0129936
0.0468272
-0.00124577
-0.00279584
-0.00272591
-0.00277602
-0.00273525
-0.00262583
-0.00277099
-0.00396269
-0.0074966
-0.014844
-0.0268376
-0.0426312
-0.0594752
-0.0732521
-0.0802333
-0.0770564
-0.0614427
-0.0296028
0.00972453
0.0510421
-0.00337759
-0.00472535
-0.00424915
-0.00393003
-0.00345566
-0.00286021
-0.00253986
-0.00339284
-0.00680602
-0.0142598
-0.026519
-0.0426161
-0.0598307
-0.0739086
-0.0812094
-0.0781276
-0.0627317
-0.0299433
0.0113147
0.0610044
-0.0065803
-0.00733845
-0.00619207
-0.00532097
-0.00426136
-0.00305476
-0.00216901
-0.00259247
-0.00577302
-0.013158
-0.0254355
-0.0415489
-0.0587188
-0.0727217
-0.0798753
-0.0762592
-0.0598004
-0.0250285
0.0188537
0.0801201
-0.0113161
-0.0107156
-0.00851203
-0.00687362
-0.00508928
-0.00318507
-0.00168713
-0.00164586
-0.00453973
-0.0117472
-0.0238686
-0.0397449
-0.0566293
-0.0702251
-0.0767906
-0.0718529
-0.0531689
-0.0148015
0.0334677
0.111557
-0.0183745
-0.0148491
-0.0110541
-0.00841021
-0.00580602
-0.00319165
-0.00112312
-0.0006623
-0.0032838
-0.0102744
-0.0221305
-0.0375987
-0.0539988
-0.0669054
-0.0724832
-0.0654938
-0.0433364
0.000892139
0.057709
0.156369
-0.0291956
-0.0195623
-0.0134968
-0.00957252
-0.00613893
-0.00291915
-0.000444819
0.000283273
-0.00216273
-0.00894884
-0.0204852
-0.0354287
-0.0511764
-0.0631682
-0.0674511
-0.057845
-0.0310716
0.0217813
0.0926511
0.217924
-0.046024
-0.0241383
-0.0149794
-0.00961428
-0.00553495
-0.00205222
0.000528209
0.00126938
-0.00116629
-0.00781796
-0.0190247
-0.0333891
-0.0483951
-0.0593854
-0.0622979
-0.0499931
-0.0182041
0.0456662
0.137211
0.301977
-0.0707979
-0.0245881
-0.0121167
-0.00684928
-0.00303691
8.30186e-05
0.00226829
0.00268269
6.31427e-05
-0.00655776
-0.0174827
-0.0313413
-0.0457054
-0.0559285
-0.0578095
-0.043675
-0.00812319
0.066826
0.184901
0.408514
-0.107855
-0.0137685
-0.000472388
0.000118929
0.00188859
0.00377581
0.00502473
0.00480997
0.00186313
-0.00482254
-0.015579
-0.0291565
-0.0431938
-0.0531939
-0.0549783
-0.040413
-0.00374121
0.077875
0.219329
0.51199
)
;

boundaryField
{
    movingWall
    {
        type            zeroGradient;
    }
    fixedWalls
    {
        type            zeroGradient;
    }
    frontAndBack
    {
        type            empty;
    }
}


// ************************************************************************* //
