/*--------------------------------*- C++ -*----------------------------------*\
  =========                 |
  \\      /  F ield         | OpenFOAM: The Open Source CFD Toolbox
   \\    /   O peration     | Website:  https://openfoam.org
    \\  /    A nd           | Version:  9
     \\/     M anipulation  |
\*---------------------------------------------------------------------------*/
FoamFile
{
    format      ascii;
    class       surfaceScalarField;
    location    "0.5";
    object      phi;
}
// * * * * * * * * * * * * * * * * * * * * * * * * * * * * * * * * * * * * * //

dimensions      [ 0 3 -1 0 0 0 0 ];

internalField   nonuniform List<scalar> 
760
(
1.66094e-08
-1.66106e-08
9.94571e-09
6.66365e-09
-1.05217e-08
2.04676e-08
-3.81507e-08
2.7629e-08
-7.25328e-08
3.43818e-08
-1.18471e-07
4.59381e-08
-1.84532e-07
6.60607e-08
-2.83093e-07
9.85605e-08
-4.31072e-07
1.47979e-07
-6.49063e-07
2.17991e-07
-9.55539e-07
3.06477e-07
-1.35253e-06
3.96995e-07
-1.80256e-06
4.50022e-07
-2.20551e-06
4.02959e-07
-2.39914e-06
1.93625e-07
-2.20475e-06
-1.94394e-07
-1.54852e-06
-6.56226e-07
-6.21218e-07
-9.27302e-07
3.32508e-08
-6.54469e-07
3.32504e-08
1.44263e-08
-3.10369e-08
-2.25356e-08
4.36258e-08
-9.54353e-08
9.33671e-08
-1.91247e-07
1.23441e-07
-3.10968e-07
1.54102e-07
-4.6841e-07
2.0338e-07
-6.87415e-07
2.85065e-07
-1.00068e-06
4.1183e-07
-1.44768e-06
5.94973e-07
-2.06565e-06
8.3596e-07
-2.86732e-06
1.10815e-06
-3.80482e-06
1.33449e-06
-4.73498e-06
1.38019e-06
-5.41647e-06
1.08445e-06
-5.56238e-06
3.39538e-07
-4.9463e-06
-8.10479e-07
-3.5286e-06
-2.07393e-06
-1.65575e-06
-2.80015e-06
-2.11978e-07
-2.09824e-06
-1.78727e-07
-8.52696e-09
-2.25098e-08
-9.33433e-08
1.28442e-07
-2.31222e-07
2.31246e-07
-4.05573e-07
2.97792e-07
-6.20538e-07
3.69067e-07
-8.98417e-07
4.81258e-07
-1.27542e-06
6.62073e-07
-1.79783e-06
9.34234e-07
-2.51382e-06
1.31097e-06
-3.45357e-06
1.77571e-06
-4.59362e-06
2.2482e-06
-5.81726e-06
2.55813e-06
-6.90205e-06
2.46498e-06
-7.56222e-06
1.74462e-06
-7.53056e-06
3.07877e-07
-6.64187e-06
-1.69916e-06
-4.8867e-06
-3.8291e-06
-2.56645e-06
-5.12039e-06
-5.59523e-07
-4.10518e-06
-7.3825e-07
-4.36065e-08
2.10968e-08
-1.9216e-07
2.76996e-07
-4.05518e-07
4.44604e-07
-6.6463e-07
5.56904e-07
-9.7727e-07
6.81707e-07
-1.37266e-06
8.76648e-07
-1.89483e-06
1.18424e-06
-2.59471e-06
1.63412e-06
-3.51485e-06
2.23111e-06
-4.66082e-06
2.92167e-06
-5.96336e-06
3.55074e-06
-7.25469e-06
3.84946e-06
-8.29151e-06
3.5018e-06
-8.827e-06
2.28011e-06
-8.67234e-06
1.53214e-07
-7.72469e-06
-2.64681e-06
-5.93848e-06
-5.61532e-06
-3.45936e-06
-7.59951e-06
-9.95951e-07
-6.56858e-06
-1.7342e-06
-8.85661e-08
1.09663e-07
-3.1168e-07
5.00111e-07
-6.07139e-07
7.40062e-07
-9.51936e-07
9.01701e-07
-1.35652e-06
1.08629e-06
-1.85416e-06
1.37429e-06
-2.49091e-06
1.82099e-06
-3.31333e-06
2.45654e-06
-4.34771e-06
3.2655e-06
-5.56925e-06
4.14321e-06
-6.87352e-06
4.85501e-06
-8.07771e-06
5.05365e-06
-8.97047e-06
4.39455e-06
-9.38516e-06
2.6948e-06
-9.20931e-06
-2.26419e-08
-8.37403e-06
-3.48209e-06
-6.76265e-06
-7.2267e-06
-4.33337e-06
-1.00288e-05
-1.52138e-06
-9.38057e-06
-3.25558e-06
-1.40843e-07
2.50506e-07
-4.46165e-07
8.05433e-07
-8.25987e-07
1.11988e-06
-1.25153e-06
1.32725e-06
-1.734e-06
1.56876e-06
-2.30698e-06
1.94727e-06
-3.01283e-06
2.52683e-06
-3.88711e-06
3.33082e-06
-4.93596e-06
4.31434e-06
-6.10977e-06
5.31702e-06
-7.29023e-06
6.03547e-06
-8.31336e-06
6.07678e-06
-9.02901e-06
5.1102e-06
-9.3488e-06
3.01459e-06
-9.23179e-06
-1.39646e-07
-8.59864e-06
-4.11524e-06
-7.28896e-06
-8.53637e-06
-5.08496e-06
-1.22328e-05
-2.09791e-06
-1.23676e-05
-5.3535e-06
-1.99137e-07
4.49644e-07
-5.9117e-07
1.19747e-06
-1.0532e-06
1.58191e-06
-1.54879e-06
1.82284e-06
-2.08755e-06
2.10752e-06
-2.69976e-06
2.55948e-06
-3.41982e-06
3.2469e-06
-4.26961e-06
4.18061e-06
-5.23777e-06
5.2825e-06
-6.26212e-06
6.34137e-06
-7.23189e-06
7.00524e-06
-8.02322e-06
6.86811e-06
-8.55268e-06
5.63965e-06
-8.79782e-06
3.25973e-06
-8.75705e-06
-1.80421e-07
-8.36158e-06
-4.51071e-06
-7.42246e-06
-9.47549e-06
-5.58581e-06
-1.40694e-05
-2.6464e-06
-1.5307e-05
-7.9999e-06
-2.62977e-07
7.12621e-07
-7.43552e-07
1.67804e-06
-1.28149e-06
2.11985e-06
-1.83135e-06
2.37271e-06
-2.39911e-06
2.67528e-06
-3.009e-06
3.16938e-06
-3.68562e-06
3.92351e-06
-4.43835e-06
4.93334e-06
-5.24529e-06
6.08944e-06
-6.04516e-06
7.14124e-06
-6.75057e-06
7.71066e-06
-7.286e-06
7.40354e-06
-7.62706e-06
5.98072e-06
-7.79844e-06
3.43111e-06
-7.82754e-06
-1.51316e-07
-7.66486e-06
-4.67339e-06
-7.1208e-06
-1.00195e-05
-5.74911e-06
-1.54411e-05
-3.07308e-06
-1.79831e-05
-1.1073e-05
-3.3277e-07
1.04539e-06
-9.01596e-07
2.24687e-06
-1.50548e-06
2.72374e-06
-2.08984e-06
2.95706e-06
-2.65598e-06
3.24141e-06
-3.22094e-06
3.73434e-06
-3.79994e-06
4.50251e-06
-4.3938e-06
5.5272e-06
-4.97855e-06
6.67419e-06
-5.50527e-06
7.66796e-06
-5.91904e-06
8.12443e-06
-6.19191e-06
7.67641e-06
-6.34656e-06
6.13536e-06
-6.43918e-06
3.52373e-06
-6.52129e-06
-6.92004e-08
-6.56701e-06
-4.62767e-06
-6.40796e-06
-1.01786e-05
-5.55189e-06
-1.62972e-05
-3.30545e-06
-2.02295e-05
-1.43784e-05
-4.10035e-07
1.45543e-06
-1.06515e-06
2.90199e-06
-1.7217e-06
3.38028e-06
-2.31788e-06
3.55324e-06
-2.85098e-06
3.77451e-06
-3.33133e-06
4.2147e-06
-3.76693e-06
4.9381e-06
-4.15508e-06
5.91535e-06
-4.47757e-06
6.99668e-06
-4.70583e-06
7.89622e-06
-4.82099e-06
8.23959e-06
-4.83757e-06
7.693e-06
-4.81377e-06
6.11156e-06
-4.82486e-06
3.53481e-06
-4.94254e-06
4.84825e-08
-5.16149e-06
-4.40872e-06
-5.35217e-06
-9.98791e-06
-5.02171e-06
-1.66277e-05
-3.30805e-06
-2.19432e-05
-1.76865e-05
-4.97791e-07
1.95322e-06
-1.2356e-06
3.63979e-06
-1.92792e-06
4.0726e-06
-2.51095e-06
4.13627e-06
-2.98071e-06
4.24427e-06
-3.34285e-06
4.57684e-06
-3.60104e-06
5.1963e-06
-3.75365e-06
6.06796e-06
-3.79389e-06
7.03692e-06
-3.71786e-06
7.82019e-06
-3.54256e-06
8.06428e-06
-3.31824e-06
7.46868e-06
-3.12939e-06
5.92271e-06
-3.06174e-06
3.46716e-06
-3.19588e-06
1.8262e-07
-3.54856e-06
-4.05604e-06
-4.03635e-06
-9.50012e-06
-4.21157e-06
-1.64525e-05
-3.09378e-06
-2.30609e-05
-2.07803e-05
-6.01103e-07
2.55432e-06
-1.41543e-06
4.45412e-06
-2.12145e-06
4.77863e-06
-2.66328e-06
4.67809e-06
-3.0411e-06
4.62209e-06
-3.25917e-06
4.79491e-06
-3.31963e-06
5.25676e-06
-3.22461e-06
5.97294e-06
-2.9813e-06
6.79361e-06
-2.61102e-06
7.44991e-06
-2.1639e-06
7.61716e-06
-1.71866e-06
7.02344e-06
-1.38006e-06
5.58411e-06
-1.23558e-06
3.32268e-06
-1.36962e-06
3.16664e-07
-1.81059e-06
-3.61507e-06
-2.53361e-06
-8.7771e-06
-3.17525e-06
-1.58108e-05
-2.694e-06
-2.35422e-05
-2.34743e-05
-7.27838e-07
3.28216e-06
-1.60686e-06
5.33314e-06
-2.29505e-06
5.46681e-06
-2.7612e-06
5.14424e-06
-3.01822e-06
4.87912e-06
-3.07344e-06
4.85013e-06
-2.92958e-06
5.1129e-06
-2.59255e-06
5.63591e-06
-2.0821e-06
6.28316e-06
-1.44118e-06
6.80899e-06
-7.48553e-07
6.92453e-06
-1.10211e-07
6.3851e-06
3.73141e-07
5.10076e-06
5.99267e-07
3.09655e-06
4.85436e-07
4.30495e-07
-2.06079e-08
-3.10903e-06
-8.85756e-07
-7.91195e-06
-1.94391e-06
-1.47527e-05
-2.13476e-06
-2.33513e-05
-2.5609e-05
-8.89698e-07
4.17186e-06
-1.80832e-06
6.25177e-06
-2.42823e-06
6.08672e-06
-2.76976e-06
5.48577e-06
-2.87068e-06
4.98004e-06
-2.74679e-06
4.72624e-06
-2.40269e-06
4.76881e-06
-1.84531e-06
5.07852e-06
-1.10116e-06
5.53901e-06
-2.26642e-07
5.93448e-06
6.81093e-07
6.0168e-06
1.50706e-06
5.55913e-06
2.1226e-06
4.48522e-06
2.43984e-06
2.77931e-06
2.37639e-06
4.93944e-07
1.88622e-06
-2.61886e-06
8.97519e-07
-6.92325e-06
-5.22326e-07
-1.33328e-05
-1.4073e-06
-2.24664e-05
-2.70163e-05
-1.10332e-06
5.27518e-06
-2.00465e-06
7.1531e-06
-2.46765e-06
6.54972e-06
-2.60593e-06
5.62405e-06
-2.49733e-06
4.87144e-06
-2.17122e-06
4.40013e-06
-1.63417e-06
4.23176e-06
-8.88836e-07
4.33319e-06
4.25474e-08
4.60763e-06
1.09852e-06
4.87851e-06
2.1801e-06
4.93521e-06
3.16292e-06
4.57631e-06
3.91504e-06
3.7331e-06
4.3433e-06
2.35105e-06
4.36114e-06
4.76105e-07
3.89883e-06
-2.15655e-06
2.84753e-06
-5.87194e-06
1.12894e-06
-1.16142e-05
-3.31568e-07
-2.10059e-05
-2.73479e-05
-1.38701e-06
6.66219e-06
-2.13761e-06
7.90369e-06
-2.28014e-06
6.69225e-06
-2.08452e-06
5.42842e-06
-1.68179e-06
4.46871e-06
-1.11364e-06
3.83198e-06
-3.84786e-07
3.50291e-06
5.126e-07
3.4358e-06
1.57031e-06
3.54992e-06
2.74538e-06
3.70344e-06
3.94427e-06
3.73632e-06
5.04762e-06
3.47296e-06
5.92469e-06
2.85603e-06
6.47098e-06
1.80477e-06
6.58859e-06
3.58494e-07
6.16922e-06
-1.73719e-06
5.06868e-06
-4.7714e-06
3.06059e-06
-9.60614e-06
7.67761e-07
-1.8713e-05
-2.65801e-05
-1.72155e-06
8.38374e-06
-2.00868e-06
8.19082e-06
-1.53531e-06
6.21888e-06
-8.11475e-07
4.70459e-06
-3.46424e-09
3.6607e-06
8.51692e-07
2.97682e-06
1.77124e-06
2.58336e-06
2.78324e-06
2.4238e-06
3.90458e-06
2.42859e-06
5.11721e-06
2.4908e-06
6.35438e-06
2.49916e-06
7.5101e-06
2.31724e-06
8.46402e-06
1.90211e-06
9.0958e-06
1.17298e-06
9.29338e-06
1.60922e-07
8.89718e-06
-1.34099e-06
7.71521e-06
-3.58943e-06
5.37414e-06
-7.26507e-06
2.10142e-06
-1.54403e-05
-2.44787e-05
-1.84467e-06
1.02284e-05
-9.60187e-07
7.30634e-06
5.6901e-07
4.68968e-06
1.99731e-06
3.27629e-06
3.25716e-06
2.40085e-06
4.39201e-06
1.84198e-06
5.45685e-06
1.51852e-06
6.51319e-06
1.36746e-06
7.60888e-06
1.3329e-06
8.75472e-06
1.34496e-06
9.91707e-06
1.3368e-06
1.10095e-05
1.22478e-06
1.19308e-05
9.80831e-07
1.25497e-05
5.54091e-07
1.27485e-05
-3.79009e-08
1.23233e-05
-9.15774e-07
1.10222e-05
-2.2883e-06
8.35463e-06
-4.59752e-06
4.02287e-06
-1.11085e-05
-2.04558e-05
-5.69576e-08
1.02854e-05
3.0764e-06
4.17298e-06
5.73938e-06
2.0267e-06
7.68218e-06
1.33349e-06
9.16846e-06
9.14575e-07
1.03595e-05
6.50891e-07
1.13705e-05
5.07584e-07
1.22949e-05
4.43048e-07
1.32018e-05
4.25987e-07
1.41199e-05
4.26847e-07
1.50386e-05
4.18148e-07
1.58926e-05
3.70791e-07
1.66017e-05
2.71699e-07
1.70438e-05
1.11946e-07
1.71226e-05
-1.16681e-07
1.66342e-05
-4.27335e-07
1.52901e-05
-9.44236e-07
1.25504e-05
-1.85783e-06
7.02944e-06
-5.58757e-06
-1.34264e-05
1.02854e-05
1.44583e-05
1.64851e-05
1.78185e-05
1.87331e-05
1.9384e-05
1.98916e-05
2.03346e-05
2.07606e-05
2.11875e-05
2.16056e-05
2.19764e-05
2.22481e-05
2.23601e-05
2.22434e-05
2.1816e-05
2.08718e-05
1.9014e-05
1.34264e-05
)
;

boundaryField
{
    movingWall
    {
        type            calculated;
        value           uniform 0;
    }
    fixedWalls
    {
        type            calculated;
        value           uniform 0;
    }
    frontAndBack
    {
        type            empty;
        value           nonuniform 0 ( );
    }
}


// ************************************************************************* //
