/*--------------------------------*- C++ -*----------------------------------*\
  =========                 |
  \\      /  F ield         | OpenFOAM: The Open Source CFD Toolbox
   \\    /   O peration     | Website:  https://openfoam.org
    \\  /    A nd           | Version:  9
     \\/     M anipulation  |
\*---------------------------------------------------------------------------*/
FoamFile
{
    format      ascii;
    class       volVectorField;
    location    "0.5";
    object      U;
}
// * * * * * * * * * * * * * * * * * * * * * * * * * * * * * * * * * * * * * //

dimensions      [ 0 1 -1 0 0 0 0 ];

internalField   nonuniform List<vector> 
400
(
(0.000456166 -0.000192389 0)
(0.000711212 -6.42223e-06 0)
(7.84676e-05 8.9943e-05 0)
(-0.000904357 0.000128238 0)
(-0.00211977 0.000158218 0)
(-0.00366249 0.000218053 0)
(-0.00580566 0.000333473 0)
(-0.00896967 0.000534233 0)
(-0.0137512 0.000866609 0)
(-0.0209464 0.00139048 0)
(-0.0314427 0.00214765 0)
(-0.0458106 0.00308107 0)
(-0.063469 0.00391009 0)
(-0.0815979 0.00404506 0)
(-0.0945543 0.00273828 0)
(-0.0949449 -0.000336905 0)
(-0.0772931 -0.00455083 0)
(-0.0437074 -0.00725217 0)
(-0.00705581 -0.00500088 0)
(0.00492998 0.000944897 0)
(0.000626759 -0.00054988 0)
(0.000330988 0.000309222 0)
(-0.00210448 0.000855984 0)
(-0.00552389 0.00115863 0)
(-0.00975431 0.00145131 0)
(-0.0151105 0.0019369 0)
(-0.0223621 0.00276829 0)
(-0.0326552 0.00409957 0)
(-0.0474884 0.00610558 0)
(-0.0685654 0.0089098 0)
(-0.0972195 0.012376 0)
(-0.133148 0.0157712 0)
(-0.172644 0.0174878 0)
(-0.207423 0.0152149 0)
(-0.225709 0.00693857 0)
(-0.216287 -0.00724819 0)
(-0.173898 -0.0237534 0)
(-0.10455 -0.0333999 0)
(-0.0287661 -0.0241333 0)
(0.00418457 -6.70846e-05 0)
(0.00036463 -0.000661485 0)
(-0.0012718 0.00144763 0)
(-0.00610378 0.0028925 0)
(-0.0123951 0.00379856 0)
(-0.0200406 0.00474122 0)
(-0.0296 0.00623774 0)
(-0.0422754 0.00869053 0)
(-0.0597664 0.0124611 0)
(-0.084097 0.0178403 0)
(-0.117148 0.0247767 0)
(-0.159543 0.0323367 0)
(-0.20885 0.0381327 0)
(-0.258005 0.0383437 0)
(-0.295682 0.0288921 0)
(-0.30945 0.00757676 0)
(-0.290299 -0.0236204 0)
(-0.235606 -0.0571375 0)
(-0.150985 -0.0766123 0)
(-0.0541164 -0.0587482 0)
(-0.000702386 -0.00746072 0)
(-0.000164166 -0.000191305 0)
(-0.00372597 0.00372594 0)
(-0.0114775 0.00637647 0)
(-0.0209643 0.00813216 0)
(-0.0322014 0.010044 0)
(-0.0459803 0.013037 0)
(-0.0638218 0.0178175 0)
(-0.0877269 0.0249373 0)
(-0.11979 0.0346389 0)
(-0.161395 0.0463047 0)
(-0.211757 0.0576277 0)
(-0.266231 0.0641402 0)
(-0.315831 0.0600612 0)
(-0.349383 0.0406458 0)
(-0.357303 0.00472112 0)
(-0.334235 -0.0437647 0)
(-0.278402 -0.0947207 0)
(-0.191293 -0.126525 0)
(-0.0835867 -0.104239 0)
(-0.00823549 -0.0226144 0)
(-0.000873502 0.00109546 0)
(-0.00679975 0.00740427 0)
(-0.0178666 0.011453 0)
(-0.0307027 0.0141914 0)
(-0.04545 0.0172743 0)
(-0.0630669 0.0220798 0)
(-0.0852256 0.029603 0)
(-0.113933 0.040479 0)
(-0.150936 0.0546544 0)
(-0.19671 0.0705802 0)
(-0.249024 0.0843103 0)
(-0.301877 0.0895196 0)
(-0.346313 0.0793883 0)
(-0.373607 0.0497058 0)
(-0.37809 0.000800734 0)
(-0.35712 -0.0628088 0)
(-0.307829 -0.130103 0)
(-0.226459 -0.176995 0)
(-0.116387 -0.157917 0)
(-0.0187172 -0.0472865 0)
(-0.00172408 0.00336506 0)
(-0.0103424 0.0126678 0)
(-0.0249671 0.0182131 0)
(-0.0411096 0.0219385 0)
(-0.0590114 0.0262347 0)
(-0.0796906 0.0329399 0)
(-0.10478 0.0432702 0)
(-0.136026 0.0577936 0)
(-0.174577 0.075931 0)
(-0.219958 0.0950092 0)
(-0.268975 0.10954 0)
(-0.31543 0.111951 0)
(-0.351896 0.0953489 0)
(-0.372944 0.0567026 0)
(-0.37648 -0.00252649 0)
(-0.361165 -0.078171 0)
(-0.322536 -0.160254 0)
(-0.252566 -0.224566 0)
(-0.148524 -0.21719 0)
(-0.0321297 -0.0831227 0)
(-0.00270264 0.00674519 0)
(-0.0142555 0.0196351 0)
(-0.0325259 0.0266591 0)
(-0.0517314 0.0312185 0)
(-0.0721698 0.0365669 0)
(-0.0947956 0.0449786 0)
(-0.121032 0.0577973 0)
(-0.152205 0.0753829 0)
(-0.18882 0.0964971 0)
(-0.229715 0.117361 0)
(-0.271417 0.131297 0)
(-0.308518 0.130182 0)
(-0.335849 0.107744 0)
(-0.351098 0.0622296 0)
(-0.354623 -0.00437205 0)
(-0.345952 -0.0886741 0)
(-0.319844 -0.183289 0)
(-0.265092 -0.266036 0)
(-0.174484 -0.277894 0)
(-0.046977 -0.130734 0)
(-0.00381642 0.0113484 0)
(-0.018487 0.0283666 0)
(-0.0403471 0.0367039 0)
(-0.0621845 0.0417615 0)
(-0.0843212 0.0477718 0)
(-0.107541 0.0574011 0)
(-0.132949 0.0720312 0)
(-0.161414 0.0917261 0)
(-0.19294 0.114577 0)
(-0.226087 0.135883 0)
(-0.257741 0.148235 0)
(-0.283884 0.143547 0)
(-0.3017 0.116524 0)
(-0.311324 0.0665246 0)
(-0.31472 -0.00434058 0)
(-0.312301 -0.094081 0)
(-0.299057 -0.198204 0)
(-0.261602 -0.298781 0)
(-0.189916 -0.335312 0)
(-0.0600621 -0.188896 0)
(-0.00509496 0.0172863 0)
(-0.0230337 0.0388747 0)
(-0.0482983 0.0481816 0)
(-0.0721724 0.0532058 0)
(-0.0950118 0.0592583 0)
(-0.117366 0.0693469 0)
(-0.139994 0.0848293 0)
(-0.163377 0.105458 0)
(-0.187266 0.128746 0)
(-0.210357 0.149352 0)
(-0.230364 0.159569 0)
(-0.24491 0.151746 0)
(-0.253283 0.121642 0)
(-0.257346 0.0694374 0)
(-0.260129 -0.00286611 0)
(-0.262973 -0.0947854 0)
(-0.26193 -0.204905 0)
(-0.242204 -0.321251 0)
(-0.193094 -0.385507 0)
(-0.0678694 -0.254282 0)
(-0.00659777 0.0246894 0)
(-0.0279503 0.0511354 0)
(-0.0563127 0.0608585 0)
(-0.0814848 0.0651226 0)
(-0.103941 0.0703966 0)
(-0.123998 0.0799779 0)
(-0.142104 0.0951754 0)
(-0.158497 0.11548 0)
(-0.172933 0.137996 0)
(-0.184585 0.157037 0)
(-0.192277 0.164961 0)
(-0.195287 0.154753 0)
(-0.194644 0.12313 0)
(-0.193335 0.0707738 0)
(-0.195101 -0.000506922 0)
(-0.201993 -0.0915365 0)
(-0.211752 -0.20398 0)
(-0.208773 -0.332924 0)
(-0.184644 -0.425778 0)
(-0.0685181 -0.322158 0)
(-0.00842762 0.0337334 0)
(-0.0333605 0.0650941 0)
(-0.0643756 0.0744356 0)
(-0.0899613 0.0770349 0)
(-0.110908 0.0805637 0)
(-0.127366 0.0885514 0)
(-0.139569 0.102261 0)
(-0.147651 0.12102 0)
(-0.151586 0.141727 0)
(-0.151244 0.158632 0)
(-0.146678 0.16442 0)
(-0.138697 0.152762 0)
(-0.129736 0.121163 0)
(-0.123447 0.0704714 0)
(-0.123937 0.00233222 0)
(-0.133544 -0.0852278 0)
(-0.152222 -0.196464 0)
(-0.163885 -0.334019 0)
(-0.166338 -0.454401 0)
(-0.0620866 -0.387743 0)
(-0.0107503 0.0446746 0)
(-0.0394676 0.0806592 0)
(-0.0724813 0.0885329 0)
(-0.0973934 0.088419 0)
(-0.115657 0.0891718 0)
(-0.127399 0.0944686 0)
(-0.132756 0.105536 0)
(-0.131861 0.121653 0)
(-0.125011 0.139722 0)
(-0.112843 0.154176 0)
(-0.0966247 0.158208 0)
(-0.0784842 0.146122 0)
(-0.061997 0.116004 0)
(-0.0511347 0.0685564 0)
(-0.0501707 0.00532306 0)
(-0.06109 -0.0767667 0)
(-0.0865237 -0.183719 0)
(-0.109908 -0.325247 0)
(-0.140073 -0.470311 0)
(-0.0494949 -0.447063 0)
(-0.013823 0.0579011 0)
(-0.0465587 0.0976656 0)
(-0.0805273 0.102636 0)
(-0.103311 0.098668 0)
(-0.117565 0.0956581 0)
(-0.123609 0.097288 0)
(-0.12161 0.10473 0)
(-0.111735 0.117307 0)
(-0.0945665 0.132123 0)
(-0.0714001 0.143994 0)
(-0.0445684 0.146766 0)
(-0.0172423 0.135285 0)
(0.00607358 0.107855 0)
(0.0213366 0.0649955 0)
(0.0240834 0.00803594 0)
(0.013352 -0.066977 0)
(-0.016627 -0.167335 0)
(-0.0482984 -0.307657 0)
(-0.107167 -0.473011 0)
(-0.0313432 -0.496524 0)
(-0.0180317 0.0740094 0)
(-0.0549867 0.115778 0)
(-0.0880685 0.11597 0)
(-0.106538 0.106986 0)
(-0.115018 0.0994088 0)
(-0.114301 0.0966774 0)
(-0.104719 0.0998258 0)
(-0.0864311 0.108253 0)
(-0.0601204 0.119414 0)
(-0.0274258 0.128672 0)
(0.00857597 0.130635 0)
(0.0439647 0.120594 0)
(0.0735548 0.0968971 0)
(0.0935294 0.0596605 0)
(0.0987541 0.00997613 0)
(0.0897966 -0.0567706 0)
(0.0571475 -0.14838 0)
(0.0207577 -0.282539 0)
(-0.067768 -0.46273 0)
(-0.00717223 -0.532139 0)
(-0.0239305 0.0939297 0)
(-0.0650603 0.134278 0)
(-0.093706 0.127263 0)
(-0.10424 0.112175 0)
(-0.104222 0.0995875 0)
(-0.0951904 0.0922783 0)
(-0.0777389 0.0909634 0)
(-0.0519092 0.0950451 0)
(-0.0181911 0.102396 0)
(0.0219301 0.109081 0)
(0.065126 0.110498 0)
(0.107291 0.102355 0)
(0.142585 0.0831622 0)
(0.167825 0.0522342 0)
(0.176303 0.0105329 0)
(0.170894 -0.0471209 0)
(0.136636 -0.127807 0)
(0.0981634 -0.251009 0)
(-0.0202249 -0.439739 0)
(0.0251711 -0.549955 0)
(-0.0322055 0.119015 0)
(-0.0765269 0.151579 0)
(-0.0934213 0.134243 0)
(-0.0898237 0.112249 0)
(-0.0769813 0.0948569 0)
(-0.0571733 0.0834901 0)
(-0.031143 0.0782513 0)
(0.00140434 0.078387 0)
(0.0405374 0.0821471 0)
(0.0854936 0.0863551 0)
(0.13324 0.0872981 0)
(0.180342 0.0811671 0)
(0.220195 0.0666796 0)
(0.250908 0.042408 0)
(0.262858 0.00922049 0)
(0.262264 -0.0381684 0)
(0.226154 -0.105932 0)
(0.186257 -0.213163 0)
(0.0390084 -0.402113 0)
(0.0697824 -0.548529 0)
(-0.0431327 0.150488 0)
(-0.0859881 0.163502 0)
(-0.075761 0.132169 0)
(-0.0482927 0.10378 0)
(-0.0168308 0.0830805 0)
(0.0167131 0.0693026 0)
(0.052159 0.0615901 0)
(0.0905876 0.0589223 0)
(0.132947 0.0598267 0)
(0.179757 0.0618484 0)
(0.228655 0.0622863 0)
(0.277786 0.0579762 0)
(0.319639 0.0479044 0)
(0.354519 0.030329 0)
(0.368526 0.00595519 0)
(0.372473 -0.0297474 0)
(0.332683 -0.0822429 0)
(0.290474 -0.167831 0)
(0.114373 -0.344792 0)
(0.130751 -0.522448 0)
(-0.0532278 0.187484 0)
(-0.0738026 0.158313 0)
(-0.00900487 0.111663 0)
(0.0527397 0.0819282 0)
(0.106521 0.0619233 0)
(0.154253 0.0487883 0)
(0.197797 0.0410471 0)
(0.239741 0.0374577 0)
(0.282098 0.0367857 0)
(0.326894 0.0373018 0)
(0.372475 0.0372807 0)
(0.419041 0.0345016 0)
(0.45826 0.0282496 0)
(0.493161 0.0171296 0)
(0.505466 0.0014437 0)
(0.511213 -0.0214595 0)
(0.465307 -0.0564978 0)
(0.419732 -0.114541 0)
(0.216769 -0.263305 0)
(0.217631 -0.456678 0)
(-0.0278456 0.22746 0)
(0.0467402 0.123765 0)
(0.181432 0.069594 0)
(0.273455 0.0470798 0)
(0.340535 0.033327 0)
(0.393101 0.0244651 0)
(0.436275 0.0193308 0)
(0.4743 0.0168241 0)
(0.510022 0.0160381 0)
(0.546374 0.0159897 0)
(0.582228 0.0157763 0)
(0.61907 0.0142944 0)
(0.648874 0.0111084 0)
(0.676109 0.00560823 0)
(0.68166 -0.00216669 0)
(0.684076 -0.0130686 0)
(0.633348 -0.030936 0)
(0.587053 -0.0591249 0)
(0.373065 -0.158195 0)
(0.353998 -0.328531 0)
(0.403429 0.135196 0)
(0.501354 0.0668821 0)
(0.619996 0.0310667 0)
(0.69141 0.0172677 0)
(0.734635 0.0105116 0)
(0.764408 0.00672632 0)
(0.786747 0.00471362 0)
(0.805255 0.00377073 0)
(0.822058 0.00344002 0)
(0.838982 0.00336873 0)
(0.855364 0.00325973 0)
(0.871837 0.00282941 0)
(0.883876 0.00191786 0)
(0.893734 0.000421157 0)
(0.890714 -0.00164186 0)
(0.885659 -0.0043354 0)
(0.847469 -0.00923631 0)
(0.814328 -0.0159573 0)
(0.659428 -0.0452599 0)
(0.607391 -0.118037 0)
)
;

boundaryField
{
    movingWall
    {
        type            fixedValue;
        value           uniform ( 1 0 0 );
    }
    fixedWalls
    {
        type            noSlip;
    }
    frontAndBack
    {
        type            empty;
    }
}


// ************************************************************************* //
