/*--------------------------------*- C++ -*----------------------------------*\
  =========                 |
  \\      /  F ield         | OpenFOAM: The Open Source CFD Toolbox
   \\    /   O peration     | Website:  https://openfoam.org
    \\  /    A nd           | Version:  7
     \\/     M anipulation  |
\*---------------------------------------------------------------------------*/
FoamFile
{
    version     2.0;
    format      ascii;
    class       volScalarField;
    location    "0.2";
    object      p;
}
// * * * * * * * * * * * * * * * * * * * * * * * * * * * * * * * * * * * * * //

dimensions      [0 2 -2 0 0 0 0];

internalField   nonuniform List<scalar> 
400
(
-2.14708e-08
-0.000108132
-0.000152581
-0.000118034
6.39676e-07
0.000202944
0.00048651
0.000848447
0.00128427
0.00178606
0.00234076
0.00292886
0.00352364
0.00409151
0.00459393
0.00499151
0.00525138
0.00535838
0.00532442
0.00518589
0.000107511
-3.40342e-06
-3.08129e-05
1.60304e-05
0.000133668
0.000324659
0.00058994
0.000928609
0.00133741
0.00180937
0.00233236
0.00288801
0.00345101
0.00398944
0.0044669
0.00484691
0.00510084
0.00521737
0.00519956
0.00505702
0.000148776
1.15335e-05
-1.93848e-05
2.76008e-05
0.000140542
0.000322418
0.000575856
0.000901714
0.00129853
0.00176107
0.00227874
0.00283429
0.00340265
0.00395112
0.00444113
0.00483292
0.00509469
0.00521293
0.00518328
0.00500151
9.69548e-05
-6.91934e-05
-0.000110976
-6.97412e-05
3.62917e-05
0.000210056
0.000455527
0.000775515
0.0011709
0.00163885
0.00217087
0.00275101
0.00335389
0.00394416
0.00447777
0.00490695
0.00519155
0.00531237
0.00526093
0.00502963
-6.63216e-05
-0.000256742
-0.000310022
-0.000276341
-0.000178055
-1.18161e-05
0.000228032
0.000546739
0.000948194
0.00143279
0.00199495
0.00262062
0.00328424
0.00394654
0.00455503
0.00504921
0.00537506
0.0055042
0.00542646
0.00513875
-0.000351585
-0.000564602
-0.000629852
-0.000604758
-0.000515
-0.000356505
-0.000121532
0.000198224
0.000610549
0.00112026
0.00172617
0.00241745
0.00316948
0.00393858
0.00466086
0.00525691
0.00565047
0.00579717
0.00568449
0.00532018
-0.000766433
-0.00100371
-0.00108231
-0.00106735
-0.000988181
-0.00083998
-0.00061259
-0.000293981
0.00012864
0.000666223
0.00132425
0.00209772
0.00296603
0.0038822
0.0047688
0.00551952
0.00602258
0.0062039
0.00604155
0.00555878
-0.0013197
-0.00158513
-0.00167937
-0.00167718
-0.00161282
-0.00148104
-0.00126916
-0.000960865
-0.000537177
2.10814e-05
0.00072923
0.0015923
0.00260035
0.00370732
0.00482311
0.00580595
0.00648832
0.00674008
0.00650798
0.00582775
-0.00202305
-0.00232207
-0.00243489
-0.00244912
-0.00240614
-0.00230113
-0.00211917
-0.00183958
-0.00143643
-0.000880436
-0.000142405
0.000800647
0.00195406
0.00328915
0.00471103
0.00603801
0.00701945
0.00742077
0.00710195
0.00607932
-0.00289155
-0.00323083
-0.00336494
-0.00339928
-0.00338585
-0.00332187
-0.00319125
-0.00296974
-0.00262496
-0.00211706
-0.00139967
-0.000425283
0.000839789
0.00240777
0.00420517
0.00602609
0.00751205
0.00823947
0.00785371
0.0062415
-0.00394499
-0.00433205
-0.00448805
-0.00454381
-0.00456751
-0.00456104
-0.00450916
-0.00438635
-0.00415642
-0.00377149
-0.00317001
-0.0022787
-0.00102166
0.000689015
0.00285366
0.00531858
0.00764334
0.00908695
0.00879163
0.00625804
-0.00521088
-0.00565338
-0.00582589
-0.00589735
-0.00596091
-0.00602674
-0.00608328
-0.00610783
-0.00606628
-0.00591118
-0.00557721
-0.00497365
-0.00397655
-0.0024484
-0.000181868
0.00290623
0.00650399
0.00946294
0.00983494
0.00627792
-0.00673162
-0.00723481
-0.00740472
-0.00747093
-0.00756521
-0.00770974
-0.00789932
-0.00811922
-0.00834689
-0.00855087
-0.00868654
-0.00868757
-0.00844556
-0.00774566
-0.00614758
-0.00304273
0.00203793
0.00780926
0.010461
0.00705802
-0.00857983
-0.00913894
-0.00925763
-0.00926869
-0.00936277
-0.0095747
-0.00990518
-0.0103514
-0.0109126
-0.0115941
-0.0124088
-0.0133789
-0.0145146
-0.0156558
-0.0160492
-0.0145316
-0.00862823
0.00120749
0.00925643
0.00975678
-0.0108911
-0.0114701
-0.0114257
-0.011281
-0.0113105
-0.0115506
-0.0119991
-0.0126633
-0.0135697
-0.0147771
-0.0163926
-0.0185912
-0.0216066
-0.0255575
-0.0297921
-0.0312671
-0.0260524
-0.0121233
0.00455996
0.0142432
-0.0139422
-0.0144099
-0.0139493
-0.0134656
-0.0133229
-0.0135172
-0.0140199
-0.0148363
-0.0160142
-0.0176654
-0.0199996
-0.0233604
-0.0282133
-0.034874
-0.0426628
-0.0481673
-0.0448787
-0.0280217
-0.00193367
0.0210542
-0.0183844
-0.0182736
-0.0168154
-0.0156931
-0.0152294
-0.0152744
-0.0157328
-0.0165879
-0.0178932
-0.0197955
-0.0225765
-0.0266856
-0.0326818
-0.0407875
-0.0502105
-0.0578835
-0.0549272
-0.0346578
0.000651258
0.0417484
-0.0258728
-0.023443
-0.0197854
-0.0176786
-0.0167238
-0.0164959
-0.016801
-0.017585
-0.0188946
-0.020884
-0.0238561
-0.0282522
-0.0345439
-0.0426898
-0.0512556
-0.0557729
-0.0477239
-0.018568
0.032142
0.104374
-0.0395306
-0.0302625
-0.0225164
-0.018562
-0.0167133
-0.016108
-0.016271
-0.0170485
-0.0184423
-0.0205745
-0.0237183
-0.0281892
-0.034185
-0.0410364
-0.0463611
-0.0441683
-0.025104
0.0231527
0.105955
0.225025
-0.0930708
-0.0330657
-0.0141829
-0.0109035
-0.0103621
-0.0104697
-0.0112945
-0.01279
-0.0148822
-0.0176383
-0.021304
-0.0260393
-0.0317531
-0.0371246
-0.0391557
-0.0308815
-0.000770317
0.0706315
0.196568
0.378975
)
;

boundaryField
{
    movingWall
    {
        type            zeroGradient;
    }
    fixedWalls
    {
        type            zeroGradient;
    }
    frontAndBack
    {
        type            empty;
    }
}


// ************************************************************************* //
