/*--------------------------------*- C++ -*----------------------------------*\
  =========                 |
  \\      /  F ield         | OpenFOAM: The Open Source CFD Toolbox
   \\    /   O peration     | Website:  https://openfoam.org
    \\  /    A nd           | Version:  7
     \\/     M anipulation  |
\*---------------------------------------------------------------------------*/
FoamFile
{
    version     2.0;
    format      ascii;
    class       surfaceScalarField;
    location    "0.2";
    object      phi;
}
// * * * * * * * * * * * * * * * * * * * * * * * * * * * * * * * * * * * * * //

dimensions      [0 3 -1 0 0 0 0];

internalField   nonuniform List<scalar> 
760
(
-7.56353e-09
7.5651e-09
-4.85661e-08
4.10024e-08
-1.1016e-07
6.15936e-08
-1.78695e-07
6.85347e-08
-2.46701e-07
6.80051e-08
-3.10458e-07
6.37569e-08
-3.67707e-07
5.72486e-08
-4.16458e-07
4.8751e-08
-4.54534e-07
3.80766e-08
-4.79497e-07
2.49635e-08
-4.88768e-07
9.27121e-09
-4.79877e-07
-8.89024e-09
-4.5088e-07
-2.89972e-08
-4.00944e-07
-4.99357e-08
-3.31169e-07
-6.97761e-08
-2.45683e-07
-8.54858e-08
-1.53045e-07
-9.26382e-08
-6.78346e-08
-8.521e-08
-1.11308e-08
-5.67036e-08
-1.1131e-08
-4.27492e-08
5.03141e-08
-1.48223e-07
1.46476e-07
-2.88064e-07
2.01434e-07
-4.39998e-07
2.20468e-07
-5.89801e-07
2.17808e-07
-7.29048e-07
2.03004e-07
-8.52154e-07
1.80355e-07
-9.54474e-07
1.51072e-07
-1.03146e-06
1.15066e-07
-1.07847e-06
7.19698e-08
-1.09092e-06
2.17239e-08
-1.06472e-06
-3.50886e-08
-9.97002e-07
-9.6718e-08
-8.87181e-07
-1.59757e-07
-7.384e-07
-2.18557e-07
-5.59406e-07
-2.6448e-07
-3.6671e-07
-2.85335e-07
-1.86245e-07
-2.65675e-07
-5.21656e-08
-1.90783e-07
-6.32968e-08
-6.87134e-08
1.19027e-07
-2.18522e-07
2.96283e-07
-4.08931e-07
3.91843e-07
-6.12123e-07
4.23659e-07
-8.10714e-07
4.16398e-07
-9.94152e-07
3.86442e-07
-1.15526e-06
3.41461e-07
-1.28809e-06
2.83901e-07
-1.38695e-06
2.13933e-07
-1.44617e-06
1.31182e-07
-1.46016e-06
3.57198e-08
-1.42393e-06
-7.13201e-08
-1.33394e-06
-1.86708e-07
-1.1894e-06
-3.04297e-07
-9.94148e-07
-4.1381e-07
-7.59074e-07
-4.99553e-07
-5.04827e-07
-5.39582e-07
-2.63755e-07
-5.06747e-07
-7.90459e-08
-3.75492e-07
-1.42343e-07
-8.39574e-08
2.02984e-07
-2.63137e-07
4.75463e-07
-4.87262e-07
6.15967e-07
-7.2398e-07
6.60377e-07
-9.54077e-07
6.46495e-07
-1.16619e-06
5.9856e-07
-1.35265e-06
5.2792e-07
-1.50705e-06
4.38295e-07
-1.62315e-06
3.30041e-07
-1.69457e-06
2.02597e-07
-1.71477e-06
5.59152e-08
-1.67743e-06
-1.08654e-07
-1.5775e-06
-2.86639e-07
-1.41272e-06
-4.69076e-07
-1.18614e-06
-6.40391e-07
-9.09473e-07
-7.76221e-07
-6.06834e-07
-8.4222e-07
-3.17418e-07
-7.96164e-07
-9.4642e-08
-5.98268e-07
-2.36985e-07
-9.39974e-08
2.96981e-07
-2.94734e-07
6.76199e-07
-5.44517e-07
8.65751e-07
-8.07161e-07
9.23021e-07
-1.06213e-06
9.01463e-07
-1.29783e-06
8.34259e-07
-1.50663e-06
7.36722e-07
-1.68211e-06
6.13777e-07
-1.81778e-06
4.65708e-07
-1.90652e-06
2.91334e-07
-1.94047e-06
8.98725e-08
-1.91127e-06
-1.37858e-07
-1.81097e-06
-3.8694e-07
-1.63415e-06
-6.45891e-07
-1.38133e-06
-8.9321e-07
-1.06397e-06
-1.09358e-06
-7.1023e-07
-1.19596e-06
-3.68931e-07
-1.13746e-06
-1.07516e-07
-8.59683e-07
-3.44501e-07
-1.02844e-07
3.99825e-07
-3.23262e-07
8.96617e-07
-5.97056e-07
1.13955e-06
-8.8451e-07
1.21047e-06
-1.16399e-06
1.18095e-06
-1.424e-06
1.09427e-06
-1.65732e-06
9.7004e-07
-1.85785e-06
8.14311e-07
-2.01906e-06
6.26915e-07
-2.13313e-06
4.05407e-07
-2.19056e-06
1.47294e-07
-2.18003e-06
-1.48381e-07
-2.08913e-06
-4.77838e-07
-1.90699e-06
-8.28039e-07
-1.62889e-06
-1.1713e-06
-1.26408e-06
-1.45839e-06
-8.45179e-07
-1.61487e-06
-4.35123e-07
-1.54752e-06
-1.22989e-07
-1.17182e-06
-4.6749e-07
-1.12669e-07
5.12494e-07
-3.54535e-07
1.13848e-06
-6.54435e-07
1.43944e-06
-9.68996e-07
1.52504e-06
-1.27563e-06
1.48758e-06
-1.56322e-06
1.38186e-06
-1.82541e-06
1.23223e-06
-2.05688e-06
1.04578e-06
-2.25148e-06
8.21515e-07
-2.40101e-06
5.54944e-07
-2.49427e-06
2.40547e-07
-2.51643e-06
-1.26216e-07
-2.44876e-06
-5.45507e-07
-2.27181e-06
-1.00499e-06
-1.97125e-06
-1.47186e-06
-1.54957e-06
-1.88008e-06
-1.04235e-06
-2.12209e-06
-5.32471e-07
-2.05739e-06
-1.44858e-07
-1.55943e-06
-6.12348e-07
-1.24571e-07
6.37065e-07
-3.91602e-07
1.40551e-06
-7.21534e-07
1.76938e-06
-1.06686e-06
1.87036e-06
-1.40415e-06
1.82487e-06
-1.72313e-06
1.70084e-06
-2.01887e-06
1.52796e-06
-2.28756e-06
1.31447e-06
-2.5243e-06
1.05825e-06
-2.72134e-06
7.5199e-07
-2.86639e-06
3.85599e-07
-2.94143e-06
-5.11823e-08
-2.91949e-06
-5.67444e-07
-2.76879e-06
-1.15569e-06
-2.45819e-06
-1.78246e-06
-1.97394e-06
-2.36433e-06
-1.34755e-06
-2.74847e-06
-6.87233e-07
-2.71771e-06
-1.79001e-07
-2.06766e-06
-7.91349e-07
-1.3925e-07
7.76315e-07
-4.36317e-07
1.70258e-06
-8.01009e-07
2.13407e-06
-1.18093e-06
2.25028e-06
-1.55198e-06
2.19593e-06
-1.90533e-06
2.05419e-06
-2.23832e-06
1.86095e-06
-2.54974e-06
1.62589e-06
-2.83729e-06
1.34581e-06
-3.09543e-06
1.01013e-06
-3.31249e-06
6.02657e-07
-3.46901e-06
1.05337e-07
-3.52936e-06
-5.07094e-07
-3.44552e-06
-1.23952e-06
-3.15888e-06
-2.0691e-06
-2.62157e-06
-2.90165e-06
-1.84189e-06
-3.52815e-06
-9.52076e-07
-3.60753e-06
-2.39805e-07
-2.77993e-06
-1.03115e-06
-1.57541e-07
9.33856e-07
-4.90603e-07
2.03564e-06
-8.9516e-07
2.53863e-06
-1.31293e-06
2.66805e-06
-1.71949e-06
2.60249e-06
-2.10828e-06
2.44298e-06
-2.47997e-06
2.23264e-06
-2.83735e-06
1.98327e-06
-3.18268e-06
1.69114e-06
-3.5154e-06
1.34285e-06
-3.82865e-06
9.15902e-07
-4.10249e-06
3.79179e-07
-4.30111e-06
-3.08479e-07
-4.35393e-06
-1.1867e-06
-4.16278e-06
-2.26025e-06
-3.61662e-06
-3.4478e-06
-2.66056e-06
-4.48421e-06
-1.42944e-06
-4.83866e-06
-3.62753e-07
-3.84662e-06
-1.39391e-06
-1.80928e-07
1.11478e-06
-5.57545e-07
2.41226e-06
-1.00738e-06
2.98846e-06
-1.46513e-06
3.12581e-06
-1.90669e-06
3.04404e-06
-2.32884e-06
2.86513e-06
-2.73678e-06
2.64058e-06
-3.13874e-06
2.38523e-06
-3.54386e-06
2.09626e-06
-3.9602e-06
1.7592e-06
-4.39087e-06
1.34657e-06
-4.82497e-06
8.13275e-07
-5.23209e-06
9.86419e-08
-5.52115e-06
-8.9764e-07
-5.5447e-06
-2.2367e-06
-5.09108e-06
-3.90142e-06
-3.9788e-06
-5.59649e-06
-2.28549e-06
-6.53197e-06
-6.25469e-07
-5.50664e-06
-2.01938e-06
-2.12246e-07
1.32703e-06
-6.42692e-07
2.84271e-06
-1.14359e-06
3.48936e-06
-1.64159e-06
3.62381e-06
-2.11423e-06
3.51667e-06
-2.56306e-06
3.31396e-06
-2.99878e-06
3.07631e-06
-3.43614e-06
2.82259e-06
-3.893e-06
2.55311e-06
-4.38964e-06
2.25584e-06
-4.94568e-06
1.90261e-06
-5.57097e-06
1.43857e-06
-6.24013e-06
7.67795e-07
-6.87119e-06
-2.6658e-07
-7.25335e-06
-1.85454e-06
-7.05205e-06
-4.10273e-06
-5.8965e-06
-6.75203e-06
-3.70216e-06
-8.72631e-06
-1.16809e-06
-8.04071e-06
-3.18747e-06
-2.56929e-07
1.58396e-06
-7.56011e-07
3.34179e-06
-1.31399e-06
4.04734e-06
-1.84933e-06
4.15914e-06
-2.34402e-06
4.01137e-06
-2.8062e-06
3.77614e-06
-3.25245e-06
3.52255e-06
-3.70368e-06
3.27382e-06
-4.18616e-06
3.0356e-06
-4.73319e-06
2.80287e-06
-5.38387e-06
2.55329e-06
-6.17362e-06
2.22831e-06
-7.10595e-06
1.70013e-06
-8.10293e-06
7.30405e-07
-8.91742e-06
-1.04004e-06
-9.12971e-06
-3.89044e-06
-8.17237e-06
-7.70937e-06
-5.68366e-06
-1.1215e-05
-2.15675e-06
-1.15676e-05
-5.34422e-06
-3.25411e-07
1.90937e-06
-9.15091e-07
3.93147e-06
-1.53502e-06
4.66727e-06
-2.09853e-06
4.72265e-06
-2.5979e-06
4.51073e-06
-3.0501e-06
4.22834e-06
-3.47675e-06
3.9492e-06
-3.90217e-06
3.69924e-06
-4.35682e-06
3.49026e-06
-4.88152e-06
3.32756e-06
-5.52905e-06
3.20083e-06
-6.35658e-06
3.05583e-06
-7.39757e-06
2.74112e-06
-8.60762e-06
1.94046e-06
-9.71992e-06
7.22494e-08
-1.03957e-05
-3.21463e-06
-9.95188e-06
-8.15321e-06
-7.7174e-06
-1.34495e-05
-3.56722e-06
-1.57178e-05
-8.91144e-06
-4.37995e-07
2.34737e-06
-1.15057e-06
4.64404e-06
-1.83078e-06
5.34748e-06
-2.39897e-06
5.29084e-06
-2.8693e-06
4.98106e-06
-3.27026e-06
4.6293e-06
-3.62642e-06
4.30537e-06
-3.9606e-06
4.03341e-06
-4.29917e-06
3.82883e-06
-4.67758e-06
3.70597e-06
-5.14431e-06
3.66756e-06
-5.75874e-06
3.67027e-06
-6.57287e-06
3.55524e-06
-7.58352e-06
2.95111e-06
-8.7204e-06
1.20913e-06
-9.64654e-06
-2.2885e-06
-9.92253e-06
-7.87721e-06
-8.65649e-06
-1.47155e-05
-4.89636e-06
-1.94779e-05
-1.38078e-05
-6.36014e-07
2.98338e-06
-1.51545e-06
5.52348e-06
-2.22866e-06
6.06069e-06
-2.74114e-06
5.80332e-06
-3.10926e-06
5.34918e-06
-3.3767e-06
4.89674e-06
-3.5703e-06
4.49897e-06
-3.7086e-06
4.17172e-06
-3.80766e-06
3.92789e-06
-3.88513e-06
3.78344e-06
-3.96543e-06
3.74787e-06
-4.08612e-06
3.79096e-06
-4.30333e-06
3.77245e-06
-4.68524e-06
3.33301e-06
-5.32608e-06
1.84997e-06
-6.21441e-06
-1.40017e-06
-7.16914e-06
-6.92248e-06
-7.36134e-06
-1.45233e-05
-5.1963e-06
-2.1643e-05
-1.90041e-05
-1.01532e-06
3.9987e-06
-2.0975e-06
6.60566e-06
-2.72359e-06
6.68678e-06
-3.0107e-06
6.09042e-06
-3.09056e-06
5.42904e-06
-3.03463e-06
4.84081e-06
-2.88029e-06
4.34463e-06
-2.6484e-06
3.93982e-06
-2.34918e-06
3.62867e-06
-1.98355e-06
3.41781e-06
-1.54812e-06
3.31243e-06
-1.04685e-06
3.28969e-06
-5.23229e-07
3.24883e-06
-1.10407e-07
2.92019e-06
-5.71055e-08
1.79667e-06
-5.71854e-07
-8.85419e-07
-1.83325e-06
-5.66108e-06
-3.49796e-06
-1.28586e-05
-3.73627e-06
-2.14047e-05
-2.27404e-05
-1.85711e-06
5.8558e-06
-2.97703e-06
7.72558e-06
-3.00813e-06
6.71788e-06
-2.52666e-06
5.60896e-06
-1.82655e-06
4.72893e-06
-1.03194e-06
4.0462e-06
-1.90031e-07
3.50273e-06
6.76652e-07
3.07314e-06
1.5613e-06
2.74402e-06
2.47384e-06
2.50527e-06
3.43482e-06
2.35145e-06
4.46674e-06
2.25778e-06
5.55535e-06
2.16022e-06
6.60009e-06
1.87545e-06
7.29877e-06
1.09799e-06
7.10756e-06
-6.94214e-07
5.64941e-06
-4.20293e-06
2.803e-06
-1.00122e-05
1.71223e-07
-1.87729e-05
-2.25691e-05
-3.75648e-06
9.61229e-06
-2.5428e-06
6.5119e-06
1.46178e-08
4.16046e-06
2.42213e-06
3.20145e-06
4.56039e-06
2.59066e-06
6.498e-06
2.10859e-06
8.26386e-06
1.73687e-06
9.87705e-06
1.45995e-06
1.13637e-05
1.25735e-06
1.27581e-05
1.11085e-06
1.40973e-05
1.01228e-06
1.54152e-05
9.39909e-07
1.67112e-05
8.64259e-07
1.78894e-05
6.97175e-07
1.86371e-05
3.50368e-07
1.84374e-05
-4.94597e-07
1.65558e-05
-2.32127e-06
1.22193e-05
-5.67574e-06
5.44505e-06
-1.19987e-05
-1.71241e-05
9.61229e-06
1.61242e-05
2.02847e-05
2.34861e-05
2.60768e-05
2.81853e-05
2.99222e-05
3.13822e-05
3.26395e-05
3.37504e-05
3.47626e-05
3.57025e-05
3.65668e-05
3.7264e-05
3.76144e-05
3.71198e-05
3.47985e-05
2.91228e-05
1.71241e-05
)
;

boundaryField
{
    movingWall
    {
        type            calculated;
        value           uniform 0;
    }
    fixedWalls
    {
        type            calculated;
        value           uniform 0;
    }
    frontAndBack
    {
        type            empty;
        value           nonuniform 0();
    }
}


// ************************************************************************* //
