/*--------------------------------*- C++ -*----------------------------------*\
  =========                 |
  \\      /  F ield         | OpenFOAM: The Open Source CFD Toolbox
   \\    /   O peration     | Website:  https://openfoam.org
    \\  /    A nd           | Version:  7
     \\/     M anipulation  |
\*---------------------------------------------------------------------------*/
FoamFile
{
    version     2.0;
    format      ascii;
    class       volVectorField;
    location    "0.2";
    object      U;
}
// * * * * * * * * * * * * * * * * * * * * * * * * * * * * * * * * * * * * * //

dimensions      [0 1 -1 0 0 0 0];

internalField   nonuniform List<vector> 
400
(
(1.20741e-05 -1.60252e-05 0)
(-0.000430402 0.000255007 0)
(-0.00153292 0.000431514 0)
(-0.00287944 0.00049131 0)
(-0.00426687 0.000491102 0)
(-0.00559705 0.000464773 0)
(-0.0068162 0.000424001 0)
(-0.00788448 0.000369753 0)
(-0.00876124 0.00029918 0)
(-0.00940029 0.000208977 0)
(-0.00975084 9.69558e-05 0)
(-0.00976133 -3.69429e-05 0)
(-0.00938596 -0.000189294 0)
(-0.00859471 -0.000351665 0)
(-0.00738714 -0.000508729 0)
(-0.00581182 -0.000635598 0)
(-0.00399071 -0.000694569 0)
(-0.00214268 -0.000631331 0)
(-0.000617484 -0.000385699 0)
(5.37526e-06 -9.08799e-06 0)
(-0.000273704 0.000435364 0)
(-0.00166299 0.00161007 0)
(-0.00424716 0.00231357 0)
(-0.00726778 0.00255975 0)
(-0.0103362 0.00253941 0)
(-0.0132565 0.00237797 0)
(-0.0159023 0.0021281 0)
(-0.0181762 0.00180198 0)
(-0.0199884 0.00139541 0)
(-0.0212468 0.000901206 0)
(-0.021858 0.000316145 0)
(-0.0217331 -0.000354011 0)
(-0.0207991 -0.00108895 0)
(-0.0190168 -0.00184782 0)
(-0.0164057 -0.00256124 0)
(-0.0130779 -0.00312191 0)
(-0.00927405 -0.00337586 0)
(-0.00539221 -0.00312154 0)
(-0.00206782 -0.00216055 0)
(-0.000321805 -0.00058348 0)
(-0.000489911 0.00161305 0)
(-0.002557 0.00425659 0)
(-0.00613167 0.00572775 0)
(-0.0102034 0.00623214 0)
(-0.0142867 0.00614398 0)
(-0.0181456 0.00571586 0)
(-0.0216204 0.0050647 0)
(-0.0245854 0.00422609 0)
(-0.0269267 0.00320063 0)
(-0.0285307 0.00198103 0)
(-0.0292837 0.000567247 0)
(-0.0290773 -0.00102228 0)
(-0.0278218 -0.00273851 0)
(-0.0254679 -0.0044879 0)
(-0.0220379 -0.0061152 0)
(-0.0176703 -0.00738459 0)
(-0.0126643 -0.00796605 0)
(-0.00751266 -0.00744834 0)
(-0.00302157 -0.00544502 0)
(-0.00053433 -0.00196372 0)
(-0.000608414 0.00317225 0)
(-0.00310567 0.00761222 0)
(-0.00734575 0.00995173 0)
(-0.012112 0.0107129 0)
(-0.0168526 0.0105085 0)
(-0.0213167 0.00973937 0)
(-0.0253344 0.00859423 0)
(-0.0287711 0.00713473 0)
(-0.0315033 0.00536689 0)
(-0.0334054 0.00328263 0)
(-0.0343472 0.000883344 0)
(-0.0341974 -0.00180188 0)
(-0.0328373 -0.00469591 0)
(-0.0301857 -0.00764742 0)
(-0.0262396 -0.010401 0)
(-0.0211341 -0.0125646 0)
(-0.015206 -0.0135903 0)
(-0.00904193 -0.0128035 0)
(-0.00363028 -0.00956679 0)
(-0.00063555 -0.00372814 0)
(-0.000679772 0.00496145 0)
(-0.00347958 0.0114299 0)
(-0.00822088 0.0147105 0)
(-0.0135201 0.0157244 0)
(-0.0187726 0.0153735 0)
(-0.0237217 0.0142267 0)
(-0.0281989 0.0125489 0)
(-0.0320707 0.010427 0)
(-0.0352116 0.00786888 0)
(-0.0374868 0.00485935 0)
(-0.0387465 0.00139243 0)
(-0.0388258 -0.00250262 0)
(-0.0375557 -0.00673032 0)
(-0.034792 -0.0110843 0)
(-0.0304696 -0.0151965 0)
(-0.0246886 -0.0184822 0)
(-0.017815 -0.0201109 0)
(-0.0105626 -0.0190628 0)
(-0.00417368 -0.0143782 0)
(-0.000698244 -0.00574402 0)
(-0.000740672 0.00692906 0)
(-0.00381218 0.0156383 0)
(-0.00901693 0.0199415 0)
(-0.0148198 0.0212193 0)
(-0.0205683 0.0207101 0)
(-0.0260045 0.0191728 0)
(-0.0309684 0.0169549 0)
(-0.0353354 0.0141663 0)
(-0.0389839 0.01081 0)
(-0.0417729 0.00685301 0)
(-0.0435302 0.00226602 0)
(-0.0440465 -0.0029415 0)
(-0.043078 -0.00867696 0)
(-0.0403776 -0.0146907 0)
(-0.0357664 -0.0204911 0)
(-0.0292576 -0.0252473 0)
(-0.0212224 -0.0277403 0)
(-0.0125445 -0.0264633 0)
(-0.00485153 -0.0200294 0)
(-0.000760462 -0.00802347 0)
(-0.000809753 0.00907783 0)
(-0.00417916 0.020248 0)
(-0.00988717 0.0256635 0)
(-0.0162382 0.0272248 0)
(-0.0225309 0.0265567 0)
(-0.0285116 0.0246328 0)
(-0.0340367 0.0218903 0)
(-0.0389993 0.018461 0)
(-0.0432911 0.014335 0)
(-0.0467731 0.00944647 0)
(-0.0492544 0.00372054 0)
(-0.0504764 -0.00288493 0)
(-0.050098 -0.0103195 0)
(-0.0477201 -0.0183207 0)
(-0.0429732 -0.0262755 0)
(-0.0356872 -0.0330441 0)
(-0.0261619 -0.0368569 0)
(-0.01547 -0.0354727 0)
(-0.00583666 -0.0268738 0)
(-0.000835635 -0.010653 0)
(-0.000895963 0.0114406 0)
(-0.00461976 0.025318 0)
(-0.0109118 0.031942 0)
(-0.0178886 0.0338062 0)
(-0.0247962 0.0329803 0)
(-0.0313921 0.0306826 0)
(-0.0375602 0.0274504 0)
(-0.0432247 0.0234367 0)
(-0.0483067 0.0186117 0)
(-0.0526862 0.0128608 0)
(-0.0561703 0.00603425 0)
(-0.0584625 -0.00200777 0)
(-0.0591117 -0.0113156 0)
(-0.0575138 -0.0216869 0)
(-0.0530012 -0.0324292 0)
(-0.0450473 -0.0420465 0)
(-0.0336849 -0.0479952 0)
(-0.0200976 -0.0468629 0)
(-0.00740844 -0.0355526 0)
(-0.00093929 -0.0137967 0)
(-0.0010053 0.0140664 0)
(-0.00515892 0.030936 0)
(-0.012138 0.0388662 0)
(-0.0198288 0.0410417 0)
(-0.0274186 0.0400511 0)
(-0.0346874 0.0373944 0)
(-0.041561 0.0337233 0)
(-0.0480143 0.0292154 0)
(-0.0540216 0.0238174 0)
(-0.0595134 0.0173523 0)
(-0.0643325 0.0095625 0)
(-0.0681788 0.000154501 0)
(-0.070514 -0.0110985 0)
(-0.0704968 -0.0242102 0)
(-0.0670217 -0.0385348 0)
(-0.0589221 -0.0522568 0)
(-0.0455493 -0.0618089 0)
(-0.0278618 -0.0618638 0)
(-0.010194 -0.0472318 0)
(-0.00113956 -0.0177881 0)
(-0.00114603 0.0170182 0)
(-0.00582512 0.03721 0)
(-0.0136111 0.0465358 0)
(-0.0221027 0.0490051 0)
(-0.0304224 0.0478212 0)
(-0.0383876 0.044813 0)
(-0.0459865 0.0407655 0)
(-0.0532676 0.0358902 0)
(-0.0602918 0.0301153 0)
(-0.0670888 0.0231989 0)
(-0.0736002 0.0147564 0)
(-0.0795861 0.00428383 0)
(-0.0845261 -0.00876294 0)
(-0.0873749 -0.0248189 0)
(-0.0864331 -0.0435793 0)
(-0.0794936 -0.0631774 0)
(-0.0644882 -0.0788868 0)
(-0.0413313 -0.0823295 0)
(-0.0156043 -0.0640631 0)
(-0.00167981 -0.0234114 0)
(-0.00133416 0.0203804 0)
(-0.00666677 0.0442728 0)
(-0.0154015 0.0550562 0)
(-0.0247726 0.0577526 0)
(-0.0338342 0.0563069 0)
(-0.0424645 0.0529335 0)
(-0.0507369 0.0485736 0)
(-0.0587989 0.0434891 0)
(-0.0668329 0.0376085 0)
(-0.0750236 0.0306447 0)
(-0.0835026 0.0220929 0)
(-0.0922414 0.0111897 0)
(-0.100897 -0.00308808 0)
(-0.108336 -0.0218022 0)
(-0.11222 -0.0456364 0)
(-0.108835 -0.0733304 0)
(-0.0936439 -0.0992574 0)
(-0.0641475 -0.110611 0)
(-0.0264252 -0.0898053 0)
(-0.00325211 -0.0325569 0)
(-0.0016018 0.0242782 0)
(-0.0077737 0.0522989 0)
(-0.0176326 0.0645399 0)
(-0.0279464 0.0673121 0)
(-0.0377073 0.065469 0)
(-0.0468903 0.0616748 0)
(-0.0556792 0.0570479 0)
(-0.0643381 0.0519213 0)
(-0.0731958 0.0462601 0)
(-0.0826417 0.0397833 0)
(-0.0931011 0.0319178 0)
(-0.10493 0.0216604 0)
(-0.118112 0.00741903 0)
(-0.131771 -0.0129879 0)
(-0.143094 -0.0419851 0)
(-0.146436 -0.0800801 0)
(-0.133848 -0.121706 0)
(-0.0990478 -0.148585 0)
(-0.0468944 -0.12992 0)
(-0.00746183 -0.0492177 0)
(-0.00201322 0.0289157 0)
(-0.00931233 0.0615338 0)
(-0.0205201 0.0751073 0)
(-0.0318075 0.0776641 0)
(-0.0421386 0.0751873 0)
(-0.0516448 0.0708474 0)
(-0.0606427 0.0659457 0)
(-0.0695093 0.0609027 0)
(-0.0787093 0.0557677 0)
(-0.0888355 0.0503493 0)
(-0.100634 0.0441156 0)
(-0.114934 0.0359145 0)
(-0.132354 0.023522 0)
(-0.152516 0.00312493 0)
(-0.172383 -0.0303871 0)
(-0.184769 -0.0806741 0)
(-0.17833 -0.143727 0)
(-0.142822 -0.195916 0)
(-0.0799664 -0.189633 0)
(-0.0169787 -0.0799233 0)
(-0.00269737 0.0346486 0)
(-0.0115887 0.0723402 0)
(-0.0244283 0.0868761 0)
(-0.0366393 0.0887042 0)
(-0.0472587 0.0852157 0)
(-0.0566762 0.0801046 0)
(-0.0653541 0.074818 0)
(-0.0737421 0.0698558 0)
(-0.0823678 0.0653889 0)
(-0.0919271 0.0614051 0)
(-0.103363 0.0575485 0)
(-0.117872 0.0526463 0)
(-0.136693 0.0438487 0)
(-0.16025 0.025555 0)
(-0.185829 -0.0108184 0)
(-0.206263 -0.0740604 0)
(-0.208699 -0.161951 0)
(-0.180607 -0.248147 0)
(-0.119357 -0.269426 0)
(-0.0331513 -0.133764 0)
(-0.00391685 0.0421382 0)
(-0.015166 0.0852634 0)
(-0.0299472 0.0999047 0)
(-0.0428072 0.100146 0)
(-0.0531148 0.0950861 0)
(-0.0616893 0.0888467 0)
(-0.0691381 0.082904 0)
(-0.075908 0.0777788 0)
(-0.0824617 0.0737556 0)
(-0.0893895 0.0710378 0)
(-0.0975174 0.0695362 0)
(-0.107993 0.0682028 0)
(-0.122262 0.0637353 0)
(-0.141628 0.0488819 0)
(-0.165788 0.0118478 0)
(-0.189078 -0.0604551 0)
(-0.200033 -0.170176 0)
(-0.187464 -0.293554 0)
(-0.144271 -0.359612 0)
(-0.0497596 -0.222624 0)
(-0.00623077 0.052706 0)
(-0.0211029 0.101086 0)
(-0.0379743 0.113983 0)
(-0.0505458 0.111265 0)
(-0.0591483 0.103863 0)
(-0.0653093 0.0959797 0)
(-0.0697866 0.0889017 0)
(-0.0729849 0.0830601 0)
(-0.0752209 0.0787726 0)
(-0.0768042 0.0763806 0)
(-0.0781247 0.0760269 0)
(-0.0798162 0.076916 0)
(-0.083081 0.0758028 0)
(-0.0899161 0.0648596 0)
(-0.102432 0.0309801 0)
(-0.120011 -0.0406828 0)
(-0.136748 -0.159996 0)
(-0.143376 -0.312961 0)
(-0.132958 -0.435778 0)
(-0.0521847 -0.344286 0)
(-0.0109508 0.0689715 0)
(-0.0315042 0.120548 0)
(-0.0496116 0.127991 0)
(-0.0587962 0.120318 0)
(-0.0619622 0.109506 0)
(-0.0618752 0.0992361 0)
(-0.0595829 0.0903609 0)
(-0.0555816 0.0830901 0)
(-0.0501568 0.0776247 0)
(-0.0433987 0.0742437 0)
(-0.0352604 0.0731394 0)
(-0.0257456 0.0737925 0)
(-0.0155025 0.073697 0)
(-0.00633219 0.06628 0)
(-0.00160379 0.0396699 0)
(-0.00678048 -0.0218129 0)
(-0.023946 -0.131785 0)
(-0.0470778 -0.291973 0)
(-0.0797089 -0.463725 0)
(-0.0289035 -0.453105 0)
(-0.0215844 0.0952585 0)
(-0.0509331 0.14419 0)
(-0.0636504 0.138732 0)
(-0.0574678 0.121567 0)
(-0.0444408 0.105513 0)
(-0.0290145 0.0922708 0)
(-0.0124043 0.0814898 0)
(0.00483665 0.0728514 0)
(0.0224394 0.0662018 0)
(0.0404697 0.0615048 0)
(0.0591953 0.058776 0)
(0.0790632 0.0576021 0)
(0.0998593 0.0564396 0)
(0.120533 0.0509216 0)
(0.136895 0.0327551 0)
(0.142222 -0.0119121 0)
(0.128019 -0.0950779 0)
(0.095245 -0.231651 0)
(0.0162674 -0.41903 0)
(0.0261637 -0.481155 0)
(-0.0635488 0.173909 0)
(-0.0730629 0.155244 0)
(-0.0251087 0.113381 0)
(0.0249435 0.0910775 0)
(0.070278 0.0756971 0)
(0.111244 0.0634629 0)
(0.148353 0.0537549 0)
(0.182152 0.0462607 0)
(0.213094 0.0406101 0)
(0.241892 0.0364611 0)
(0.268991 0.033658 0)
(0.295383 0.0317596 0)
(0.320437 0.0300371 0)
(0.344503 0.0259506 0)
(0.361475 0.0157382 0)
(0.368189 -0.008755 0)
(0.347467 -0.0551272 0)
(0.303042 -0.1402 0)
(0.181332 -0.293065 0)
(0.136863 -0.388781 0)
(0.213625 0.129798 0)
(0.256434 0.107714 0)
(0.355311 0.0755451 0)
(0.437925 0.0553451 0)
(0.498365 0.0424292 0)
(0.544789 0.0331552 0)
(0.582529 0.0262064 0)
(0.614211 0.0209965 0)
(0.641138 0.017138 0)
(0.66478 0.0142737 0)
(0.685493 0.0122326 0)
(0.704996 0.0107127 0)
(0.721439 0.009494 0)
(0.737226 0.00782817 0)
(0.743573 0.00457901 0)
(0.744546 -0.00174626 0)
(0.711852 -0.0145248 0)
(0.659626 -0.0364318 0)
(0.501816 -0.083694 0)
(0.368559 -0.140485 0)
)
;

boundaryField
{
    movingWall
    {
        type            fixedValue;
        value           uniform (1 0 0);
    }
    fixedWalls
    {
        type            noSlip;
    }
    frontAndBack
    {
        type            empty;
    }
}


// ************************************************************************* //
