/*--------------------------------*- C++ -*----------------------------------*\
  =========                 |
  \\      /  F ield         | OpenFOAM: The Open Source CFD Toolbox
   \\    /   O peration     | Website:  https://openfoam.org
    \\  /    A nd           | Version:  7
     \\/     M anipulation  |
\*---------------------------------------------------------------------------*/
FoamFile
{
    version     2.0;
    format      ascii;
    class       volScalarField;
    location    "0.2";
    object      p;
}
// * * * * * * * * * * * * * * * * * * * * * * * * * * * * * * * * * * * * * //

dimensions      [0 2 -2 0 0 0 0];

internalField   nonuniform List<scalar> 
400
(
-1.6147e-08
-0.00347356
-0.0056159
-0.0065291
-0.00629331
-0.00503644
-0.00275626
0.000696022
0.00559338
0.01234
0.0214739
0.0336212
0.0493393
0.068769
0.0910693
0.113747
0.132484
0.14248
0.141598
0.131853
0.000680183
-0.00235616
-0.00400065
-0.00470422
-0.00442795
-0.00319125
-0.000932418
0.00251775
0.00742125
0.014141
0.0231404
0.0349402
0.0499823
0.0683323
0.0892005
0.110342
0.127913
0.137735
0.138063
0.129724
0.00169836
-0.00142513
-0.00274303
-0.00328501
-0.00297853
-0.00177788
0.000422889
0.00380869
0.00862764
0.0152028
0.0239364
0.0352817
0.0496375
0.0671015
0.0870092
0.107374
0.124604
0.13468
0.13576
0.127157
0.00277296
-0.000812579
-0.00197005
-0.00241765
-0.00210812
-0.000965906
0.00114175
0.00440595
0.0090541
0.0153673
0.023697
0.0344617
0.0480816
0.0647731
0.084105
0.104351
0.122028
0.132928
0.134631
0.124692
0.00362104
-0.000591163
-0.00167229
-0.00207604
-0.00179218
-0.000727484
0.00126631
0.00437497
0.00879313
0.0147498
0.0225432
0.0325704
0.0453092
0.0611584
0.0800015
0.100449
0.119133
0.131509
0.134198
0.122666
0.00397191
-0.000927417
-0.001972
-0.00236527
-0.00212384
-0.00113878
0.000744103
0.00369136
0.00784952
0.0133816
0.0205246
0.029658
0.0413385
0.0561918
0.0744885
0.0952828
0.115418
0.12999
0.134324
0.121386
0.003564
-0.00202224
-0.00303349
-0.00342145
-0.00321165
-0.00227804
-0.000470283
0.0023435
0.0062452
0.0113176
0.0177277
0.0258364
0.0362893
0.0499655
0.0675802
0.0887433
0.110671
0.128191
0.135031
0.121256
0.00213815
-0.00408065
-0.00501156
-0.00535299
-0.00512031
-0.00416826
-0.00236047
0.000384918
0.00407031
0.00868687
0.0143245
0.0213229
0.030416
0.0427426
0.0594948
0.0809409
0.104878
0.126079
0.136441
0.122868
-0.00057428
-0.00730638
-0.00803781
-0.00822472
-0.00785647
-0.00676706
-0.00484345
-0.0020664
0.00147713
0.00568137
0.0105578
0.0164228
0.0240912
0.0349479
0.0506631
0.0722349
0.0982651
0.123805
0.138809
0.127071
-0.0048717
-0.0118982
-0.0122073
-0.0120434
-0.0113579
-0.0099622
-0.00777231
-0.00483776
-0.0013362
0.00253387
0.00671223
0.011495
0.0177675
0.027133
0.041708
0.0632435
0.0913416
0.121753
0.142566
0.134993
-0.0111173
-0.0180435
-0.0175588
-0.0167378
-0.0154799
-0.0135667
-0.0109397
-0.00771261
-0.00414297
-0.000506286
0.00308259
0.00690972
0.0119237
0.0199127
0.0333809
0.0548002
0.0848923
0.120561
0.14835
0.148027
-0.0197994
-0.0259084
-0.0240495
-0.0221362
-0.0199823
-0.0173163
-0.0140848
-0.0104441
-0.00670696
-0.00319793
-5.94813e-05
0.00300323
0.00700191
0.0138788
0.026456
0.0478483
0.0799083
0.121111
0.157029
0.167814
-0.0316337
-0.0356161
-0.0315188
-0.0279406
-0.0245181
-0.0208716
-0.0169035
-0.0127708
-0.00880144
-0.00533077
-0.00249444
3.65367e-05
0.00334483
0.00950759
0.0215996
0.043278
0.0774342
0.124446
0.169678
0.196278
-0.047744
-0.0471992
-0.0396336
-0.0336953
-0.0286245
-0.0238244
-0.0190636
-0.014434
-0.0102263
-0.00674255
-0.00407511
-0.00183376
0.00114815
0.00707726
0.0192352
0.0417304
0.0783378
0.131597
0.187432
0.23578
-0.0699843
-0.060514
-0.0478186
-0.0387542
-0.031721
-0.0257148
-0.0202283
-0.0151996
-0.0108248
-0.0073314
-0.00473814
-0.00257104
0.000433397
0.00661035
0.0194279
0.0434292
0.0830654
0.143286
0.211159
0.289412
-0.101437
-0.0751467
-0.0552344
-0.04229
-0.0331469
-0.0260835
-0.0201052
-0.0148962
-0.0105092
-0.00707063
-0.00450967
-0.00226038
0.00103923
0.00785566
0.021841
0.0480045
0.0915019
0.159506
0.241151
0.361629
-0.146795
-0.0902045
-0.060717
-0.0433441
-0.0322552
-0.0245687
-0.0185261
-0.0134691
-0.009293
-0.00602529
-0.00351385
-0.00111356
0.00261943
0.0102691
0.0256639
0.0543529
0.102333
0.179449
0.278111
0.459132
-0.21243
-0.102551
-0.0614112
-0.0404242
-0.0283315
-0.0208786
-0.0154216
-0.0109483
-0.00725049
-0.00430719
-0.00192743
0.000571504
0.00467112
0.0130228
0.029577
0.0604154
0.112663
0.200299
0.324407
0.590992
-0.308064
-0.102198
-0.0493719
-0.0304138
-0.0201328
-0.0144894
-0.0105798
-0.00724644
-0.00434454
-0.00192367
0.000158159
0.00254212
0.00666642
0.0151463
0.0319287
0.0633423
0.11754
0.213918
0.371858
0.772294
-0.438189
-0.0785373
-0.0207009
-0.0126996
-0.00805897
-0.00597533
-0.00449381
-0.00274612
-0.000871093
0.000876563
0.00249358
0.00449624
0.00819865
0.0160643
0.0319168
0.0618958
0.114344
0.212455
0.399538
0.973811
)
;

boundaryField
{
    movingWall
    {
        type            zeroGradient;
    }
    fixedWalls
    {
        type            zeroGradient;
    }
    frontAndBack
    {
        type            empty;
    }
}


// ************************************************************************* //
