/*--------------------------------*- C++ -*----------------------------------*\
  =========                 |
  \\      /  F ield         | OpenFOAM: The Open Source CFD Toolbox
   \\    /   O peration     | Website:  https://openfoam.org
    \\  /    A nd           | Version:  7
     \\/     M anipulation  |
\*---------------------------------------------------------------------------*/
FoamFile
{
    version     2.0;
    format      ascii;
    class       surfaceScalarField;
    location    "0.2";
    object      phi;
}
// * * * * * * * * * * * * * * * * * * * * * * * * * * * * * * * * * * * * * //

dimensions      [0 3 -1 0 0 0 0];

internalField   nonuniform List<scalar> 
760
(
8.75114e-09
-8.75062e-09
-6.27853e-08
7.15364e-08
-1.70648e-07
1.07862e-07
-2.88883e-07
1.18235e-07
-4.07339e-07
1.18457e-07
-5.24526e-07
1.17187e-07
-6.42531e-07
1.18005e-07
-7.64352e-07
1.21821e-07
-8.92471e-07
1.28118e-07
-1.02715e-06
1.34677e-07
-1.16389e-06
1.36744e-07
-1.29011e-06
1.26222e-07
-1.38181e-06
9.16956e-08
-1.40265e-06
2.08377e-08
-1.30961e-06
-9.30318e-08
-1.07175e-06
-2.37861e-07
-7.02678e-07
-3.69075e-07
-2.91868e-07
-4.1081e-07
-3.8513e-09
-2.88017e-07
-3.85118e-09
-4.04329e-08
3.16824e-08
-2.45237e-07
2.7634e-07
-5.36956e-07
3.99582e-07
-8.58014e-07
4.39292e-07
-1.18137e-06
4.41811e-07
-1.50009e-06
4.35906e-07
-1.8168e-06
4.34716e-07
-2.13697e-06
4.41996e-07
-2.46443e-06
4.55578e-07
-2.79658e-06
4.6682e-07
-3.11835e-06
4.58514e-07
-3.39554e-06
4.03412e-07
-3.56991e-06
2.66073e-07
-3.56157e-06
1.2499e-08
-3.28529e-06
-3.69319e-07
-2.69031e-06
-8.32839e-07
-1.81991e-06
-1.23947e-06
-8.65924e-07
-1.3648e-06
-1.58241e-07
-9.957e-07
-1.62092e-07
-1.15418e-07
1.47101e-07
-4.54976e-07
6.15898e-07
-9.12371e-07
8.56977e-07
-1.40906e-06
9.35981e-07
-1.90604e-06
9.38796e-07
-2.39145e-06
9.2131e-07
-2.86705e-06
9.10318e-07
-3.33888e-06
9.13829e-07
-3.81032e-06
9.27018e-07
-4.27507e-06
9.31566e-07
-4.70919e-06
8.9264e-07
-5.06348e-06
7.57702e-07
-5.25959e-06
4.62176e-07
-5.19563e-06
-5.14572e-08
-4.76948e-06
-7.95473e-07
-3.92426e-06
-1.67806e-06
-2.7164e-06
-2.44733e-06
-1.38207e-06
-2.69913e-06
-3.40196e-07
-2.03757e-06
-5.02287e-07
-1.97902e-07
3.45002e-07
-6.73042e-07
1.09104e-06
-1.28215e-06
1.46609e-06
-1.92984e-06
1.58366e-06
-2.56901e-06
1.57797e-06
-3.1845e-06
1.5368e-06
-3.7773e-06
1.50311e-06
-4.35351e-06
1.49004e-06
-4.91589e-06
1.4894e-06
-5.45568e-06
1.47135e-06
-5.94402e-06
1.38098e-06
-6.32477e-06
1.13845e-06
-6.51209e-06
6.49494e-07
-6.39774e-06
-1.65799e-07
-5.87415e-06
-1.31906e-06
-4.87747e-06
-2.67474e-06
-3.45431e-06
-3.87049e-06
-1.84243e-06
-4.31102e-06
-5.12555e-07
-3.36744e-06
-1.01484e-06
-2.8126e-07
6.26262e-07
-8.88599e-07
1.69838e-06
-1.63465e-06
2.21213e-06
-2.40821e-06
2.35723e-06
-3.15699e-06
2.32676e-06
-3.86447e-06
2.24428e-06
-4.53179e-06
2.17043e-06
-5.16565e-06
2.1239e-06
-5.76925e-06
2.09301e-06
-6.33382e-06
2.03593e-06
-6.83059e-06
1.87774e-06
-7.20453e-06
1.5124e-06
-7.37285e-06
8.17815e-07
-7.23125e-06
-3.074e-07
-6.67176e-06
-1.87855e-06
-5.61717e-06
-3.72933e-06
-4.08211e-06
-5.40554e-06
-2.27133e-06
-6.1218e-06
-6.82658e-07
-4.95612e-06
-1.6975e-06
-3.62864e-07
9.89126e-07
-1.09526e-06
2.43078e-06
-1.96082e-06
3.07769e-06
-2.83309e-06
3.2295e-06
-3.6571e-06
3.15077e-06
-4.41721e-06
3.00438e-06
-5.1162e-06
2.86942e-06
-5.76264e-06
2.77034e-06
-6.36183e-06
2.69219e-06
-6.90801e-06
2.58211e-06
-7.3774e-06
2.34713e-06
-7.72313e-06
1.85813e-06
-7.87357e-06
9.68248e-07
-7.73523e-06
-4.45743e-07
-7.20224e-06
-2.41154e-06
-6.178e-06
-4.75357e-06
-4.62728e-06
-6.95625e-06
-2.69116e-06
-8.05793e-06
-8.66088e-07
-6.78119e-06
-2.56359e-06
-4.42134e-07
1.43126e-06
-1.28954e-06
3.27818e-06
-2.25379e-06
4.04194e-06
-3.19462e-06
4.17034e-06
-4.05731e-06
4.01346e-06
-4.8297e-06
3.77677e-06
-5.51816e-06
3.55788e-06
-6.13465e-06
3.38682e-06
-6.6884e-06
3.24594e-06
-7.17938e-06
3.07309e-06
-7.59286e-06
2.76061e-06
-7.89537e-06
2.16064e-06
-8.03216e-06
1.10505e-06
-7.92565e-06
-5.5226e-07
-7.47478e-06
-2.86241e-06
-6.56177e-06
-5.66658e-06
-5.09056e-06
-8.42747e-06
-3.11086e-06
-1.00376e-05
-1.07697e-06
-8.81508e-06
-3.64056e-06
-5.2013e-07
1.95139e-06
-1.4702e-06
4.22825e-06
-2.50843e-06
5.08016e-06
-3.48395e-06
5.14585e-06
-4.34622e-06
4.87573e-06
-5.08975e-06
4.52031e-06
-5.72667e-06
4.19481e-06
-6.27389e-06
3.93404e-06
-6.74602e-06
3.71807e-06
-7.15056e-06
3.47763e-06
-7.48432e-06
3.09437e-06
-7.73038e-06
2.4067e-06
-7.85461e-06
1.22928e-06
-7.79941e-06
-6.07467e-07
-7.47332e-06
-3.18849e-06
-6.74165e-06
-6.39826e-06
-5.44547e-06
-9.72365e-06
-3.5203e-06
-1.19628e-05
-1.32348e-06
-1.10119e-05
-4.96404e-06
-5.99568e-07
2.55096e-06
-1.63798e-06
5.26667e-06
-2.72067e-06
6.16286e-06
-3.69222e-06
6.1174e-06
-4.51186e-06
5.69537e-06
-5.18461e-06
5.19305e-06
-5.73062e-06
4.74082e-06
-6.17297e-06
4.37638e-06
-6.53228e-06
4.07738e-06
-6.82414e-06
3.7695e-06
-7.05758e-06
3.3278e-06
-7.23323e-06
2.58236e-06
-7.33933e-06
1.33538e-06
-7.34191e-06
-6.04888e-07
-7.16615e-06
-3.36425e-06
-6.671e-06
-6.89341e-06
-5.64281e-06
-1.07518e-05
-3.88857e-06
-1.3717e-05
-1.60449e-06
-1.3296e-05
-6.56853e-06
-6.8514e-07
3.2361e-06
-1.79516e-06
6.37669e-06
-2.88635e-06
7.25405e-06
-3.80896e-06
7.04001e-06
-4.53974e-06
6.42615e-06
-5.09874e-06
5.75206e-06
-5.51631e-06
5.15839e-06
-5.82224e-06
4.68231e-06
-6.04284e-06
4.29798e-06
-6.2009e-06
3.92757e-06
-6.31651e-06
3.44341e-06
-6.40684e-06
2.67268e-06
-6.48245e-06
1.411e-06
-6.53583e-06
-5.51514e-07
-6.51719e-06
-3.38289e-06
-6.2948e-06
-7.11579e-06
-5.61859e-06
-1.14281e-05
-4.16541e-06
-1.51702e-05
-1.90675e-06
-1.55546e-05
-8.47528e-06
-7.84058e-07
4.02016e-06
-1.94484e-06
7.53747e-06
-2.99908e-06
8.30829e-06
-3.81906e-06
7.85999e-06
-4.40942e-06
7.0165e-06
-4.81032e-06
6.15295e-06
-5.0639e-06
5.41197e-06
-5.20636e-06
4.82477e-06
-5.26821e-06
4.35983e-06
-5.27724e-06
3.9366e-06
-5.26187e-06
3.42804e-06
-5.253e-06
2.66381e-06
-5.28168e-06
1.43968e-06
-5.36814e-06
-4.65051e-07
-5.49572e-06
-3.25531e-06
-5.56045e-06
-7.05106e-06
-5.30317e-06
-1.16853e-05
-4.2853e-06
-1.61881e-05
-2.20272e-06
-1.76372e-05
-1.0678e-05
-9.06608e-07
4.92676e-06
-2.08921e-06
8.72007e-06
-3.04638e-06
9.26546e-06
-3.69789e-06
8.5115e-06
-4.08947e-06
7.40808e-06
-4.28627e-06
6.34975e-06
-4.34273e-06
5.46843e-06
-4.29983e-06
4.78187e-06
-4.18963e-06
4.24962e-06
-4.04157e-06
3.78854e-06
-3.88854e-06
3.275e-06
-3.77099e-06
2.54626e-06
-3.73688e-06
1.40557e-06
-3.83324e-06
-3.68692e-07
-4.08221e-06
-3.00635e-06
-4.4257e-06
-6.70757e-06
-4.62951e-06
-1.14815e-05
-4.17294e-06
-1.66446e-05
-2.44933e-06
-1.93608e-05
-1.31273e-05
-1.06619e-06
5.99296e-06
-2.2252e-06
9.87908e-06
-3.00214e-06
1.00424e-05
-3.40289e-06
8.91225e-06
-3.52949e-06
7.53469e-06
-3.47532e-06
6.29558e-06
-3.30532e-06
5.29844e-06
-3.06177e-06
4.53832e-06
-2.77434e-06
3.9622e-06
-2.46998e-06
3.48418e-06
-2.18148e-06
2.9865e-06
-1.95388e-06
2.31866e-06
-1.84706e-06
1.29876e-06
-1.93124e-06
-2.84513e-07
-2.26884e-06
-2.66876e-06
-2.86202e-06
-6.11439e-06
-3.53854e-06
-1.0805e-05
-3.74816e-06
-1.6435e-05
-2.58785e-06
-2.05211e-05
-1.57152e-05
-1.27728e-06
7.27024e-06
-2.3342e-06
1.0936e-05
-2.81214e-06
1.05203e-05
-2.85939e-06
8.9595e-06
-2.64832e-06
7.32362e-06
-2.29881e-06
5.94607e-06
-1.8804e-06
4.88003e-06
-1.43054e-06
4.08845e-06
-9.71228e-07
3.50289e-06
-5.22209e-07
3.03516e-06
-1.11559e-07
2.57585e-06
2.16198e-07
1.9909e-06
3.95076e-07
1.11988e-06
3.37411e-07
-2.26848e-07
-5.59091e-08
-2.27544e-06
-8.52982e-07
-5.31731e-06
-1.98021e-06
-9.67777e-06
-2.92744e-06
-1.54878e-05
-2.54138e-06
-2.09072e-05
-1.82566e-05
-1.54619e-06
8.81643e-06
-2.35786e-06
1.17477e-05
-2.36657e-06
1.05291e-05
-1.93761e-06
8.53054e-06
-1.31735e-06
6.70335e-06
-6.39663e-07
5.26838e-06
3.38886e-08
4.20648e-06
6.80171e-07
3.44217e-06
1.29145e-06
2.89161e-06
1.85997e-06
2.46664e-06
2.36656e-06
2.06927e-06
2.77168e-06
1.58577e-06
3.00865e-06
8.82918e-07
2.97994e-06
-1.98143e-07
2.55837e-06
-1.85387e-06
1.61139e-06
-4.37034e-06
9.66668e-08
-8.16304e-06
-1.61892e-06
-1.37722e-05
-2.21373e-06
-2.03124e-05
-2.04703e-05
-1.83592e-06
1.06524e-05
-2.1425e-06
1.20542e-05
-1.45032e-06
9.83688e-06
-4.18304e-07
7.49852e-06
6.59594e-07
5.62546e-06
1.66752e-06
4.26046e-06
2.57328e-06
3.30072e-06
3.38067e-06
2.63478e-06
4.10318e-06
2.1691e-06
4.74896e-06
1.82087e-06
5.31052e-06
1.5077e-06
5.75641e-06
1.13989e-06
6.0239e-06
6.1542e-07
6.01283e-06
-1.87073e-07
5.57961e-06
-1.42064e-06
4.54054e-06
-3.33127e-06
2.72007e-06
-6.34257e-06
2.79891e-07
-1.1332e-05
-1.46633e-06
-1.85662e-05
-2.19366e-05
-1.96392e-06
1.26163e-05
-1.3191e-06
1.14094e-05
3.37495e-07
8.18029e-06
2.04861e-06
5.78741e-06
3.56142e-06
4.11264e-06
4.83692e-06
2.98495e-06
5.90027e-06
2.23737e-06
6.79448e-06
1.74058e-06
7.55889e-06
1.40468e-06
8.21885e-06
1.16091e-06
8.77888e-06
9.47673e-07
9.21658e-06
7.02184e-07
9.47636e-06
3.55648e-07
9.46217e-06
-1.72885e-07
9.0274e-06
-9.85874e-07
7.95868e-06
-2.26255e-06
5.97146e-06
-4.35535e-06
2.94035e-06
-8.30092e-06
5.33555e-09
-1.56311e-05
-2.19313e-05
-1.30272e-06
1.3919e-05
9.25465e-07
9.18123e-06
3.68652e-06
5.41923e-06
5.96484e-06
3.50909e-06
7.73541e-06
2.34207e-06
9.10398e-06
1.61638e-06
1.01734e-05
1.1679e-06
1.10287e-05
8.85286e-07
1.17319e-05
7.01567e-07
1.23208e-05
5.71931e-07
1.28087e-05
4.59838e-07
1.31806e-05
3.30283e-07
1.33899e-05
1.46361e-07
1.33515e-05
-1.34512e-07
1.29311e-05
-5.65447e-07
1.19143e-05
-1.2458e-06
9.95354e-06
-2.39459e-06
6.5644e-06
-4.91178e-06
2.16741e-06
-1.12342e-05
-1.97639e-05
1.84495e-06
1.20741e-05
6.23491e-06
4.79126e-06
9.5907e-06
2.06344e-06
1.18986e-05
1.20121e-06
1.34989e-05
7.4171e-07
1.46371e-05
4.78225e-07
1.54747e-05
3.30347e-07
1.61159e-05
2.44041e-07
1.66267e-05
1.90801e-07
1.70445e-05
1.54121e-07
1.73827e-05
1.21627e-07
1.76309e-05
8.20469e-08
1.77534e-05
2.39071e-08
1.76847e-05
-6.57964e-08
1.73218e-05
-2.02569e-07
1.64921e-05
-4.16146e-07
1.48762e-05
-7.78665e-07
1.17041e-05
-1.73971e-06
5.91321e-06
-5.44324e-06
-1.38507e-05
1.20741e-05
1.68653e-05
1.89288e-05
2.013e-05
2.08717e-05
2.13499e-05
2.16802e-05
2.19243e-05
2.21151e-05
2.22692e-05
2.23908e-05
2.24729e-05
2.24968e-05
2.2431e-05
2.22284e-05
2.18123e-05
2.10336e-05
1.92939e-05
1.38507e-05
)
;

boundaryField
{
    movingWall
    {
        type            calculated;
        value           uniform 0;
    }
    fixedWalls
    {
        type            calculated;
        value           uniform 0;
    }
    frontAndBack
    {
        type            empty;
        value           nonuniform 0();
    }
}


// ************************************************************************* //
