/*--------------------------------*- C++ -*----------------------------------*\
  =========                 |
  \\      /  F ield         | OpenFOAM: The Open Source CFD Toolbox
   \\    /   O peration     | Website:  https://openfoam.org
    \\  /    A nd           | Version:  7
     \\/     M anipulation  |
\*---------------------------------------------------------------------------*/
FoamFile
{
    version     2.0;
    format      ascii;
    class       volVectorField;
    location    "0.2";
    object      U;
}
// * * * * * * * * * * * * * * * * * * * * * * * * * * * * * * * * * * * * * //

dimensions      [0 1 -1 0 0 0 0];

internalField   nonuniform List<vector> 
400
(
(0.000594323 -0.000210804 0)
(-0.000518682 0.000460274 0)
(-0.0044858 0.000740437 0)
(-0.00915172 0.000809661 0)
(-0.013936 0.000807332 0)
(-0.0186514 0.000801994 0)
(-0.0233371 0.000818803 0)
(-0.0281138 0.000863377 0)
(-0.033106 0.000933197 0)
(-0.038387 0.00101472 0)
(-0.0438958 0.00107508 0)
(-0.0493143 0.00105247 0)
(-0.0539197 0.000851295 0)
(-0.0564754 0.000356086 0)
(-0.0552934 -0.000512517 0)
(-0.0487091 -0.00168336 0)
(-0.0361796 -0.00278931 0)
(-0.0196536 -0.00316959 0)
(-0.00405134 -0.00214396 0)
(0.00135909 0.000331011 0)
(0.000187331 -5.71281e-05 0)
(-0.00434245 0.002876 0)
(-0.0151639 0.00429867 0)
(-0.0278024 0.00473724 0)
(-0.0408339 0.00476566 0)
(-0.0536908 0.00471906 0)
(-0.0663581 0.00474285 0)
(-0.0790507 0.00487687 0)
(-0.0919971 0.0051004 0)
(-0.105272 0.00532337 0)
(-0.118583 0.00535648 0)
(-0.130994 0.00488425 0)
(-0.140664 0.0034731 0)
(-0.144732 0.000670039 0)
(-0.139636 -0.00372505 0)
(-0.122233 -0.00922571 0)
(-0.0919532 -0.0141452 0)
(-0.0532044 -0.0156877 0)
(-0.0162718 -0.0111665 0)
(3.95236e-05 -0.000880618 0)
(-0.000881846 0.00144717 0)
(-0.00945566 0.0082434 0)
(-0.0266856 0.0117481 0)
(-0.0463222 0.0129074 0)
(-0.066414 0.0129881 0)
(-0.086096 0.0128017 0)
(-0.105266 0.0127294 0)
(-0.12416 0.012884 0)
(-0.143031 0.0132014 0)
(-0.161894 0.0134277 0)
(-0.180223 0.0130656 0)
(-0.196611 0.0113431 0)
(-0.208491 0.00727986 0)
(-0.21211 -3.82452e-05 0)
(-0.203047 -0.0108554 0)
(-0.177618 -0.0238436 0)
(-0.135324 -0.0351723 0)
(-0.081529 -0.0387122 0)
(-0.0288614 -0.0286321 0)
(-0.00242601 -0.00584407 0)
(-0.00217148 0.00456418 0)
(-0.0150308 0.0164287 0)
(-0.0383844 0.0225262 0)
(-0.0641998 0.0245186 0)
(-0.0902061 0.0245514 0)
(-0.115348 0.0240368 0)
(-0.13946 0.0236623 0)
(-0.162781 0.0236366 0)
(-0.185569 0.0238333 0)
(-0.207789 0.0237777 0)
(-0.228769 0.0225798 0)
(-0.246856 0.0189203 0)
(-0.259178 0.01121 0)
(-0.261681 -0.00192818 0)
(-0.249709 -0.0207222 0)
(-0.219357 -0.0428705 0)
(-0.169795 -0.0621988 0)
(-0.105946 -0.0687715 0)
(-0.0408366 -0.0526345 0)
(-0.00504161 -0.0143991 0)
(-0.00351293 0.0093585 0)
(-0.020672 0.027296 0)
(-0.0498048 0.0361783 0)
(-0.0809697 0.0388804 0)
(-0.111711 0.038614 0)
(-0.140886 0.0374732 0)
(-0.168318 0.0364885 0)
(-0.194273 0.035977 0)
(-0.219035 0.0357405 0)
(-0.242578 0.035061 0)
(-0.264226 0.0326349 0)
(-0.282339 0.0265931 0)
(-0.294121 0.0147614 0)
(-0.295677 -0.00467041 0)
(-0.282478 -0.031935 0)
(-0.250426 -0.0639262 0)
(-0.197818 -0.0923701 0)
(-0.12791 -0.103453 0)
(-0.0526666 -0.0819941 0)
(-0.00779816 -0.0263342 0)
(-0.00485225 0.0158106 0)
(-0.0261909 0.0407394 0)
(-0.0606327 0.0523891 0)
(-0.0962287 0.0554767 0)
(-0.130446 0.0545104 0)
(-0.162161 0.052337 0)
(-0.191257 0.0503514 0)
(-0.218075 0.0489849 0)
(-0.242976 0.047969 0)
(-0.266029 0.0463491 0)
(-0.286705 0.0424322 0)
(-0.303623 0.0338478 0)
(-0.314382 0.0178925 0)
(-0.31557 -0.00767008 0)
(-0.303013 -0.0432125 0)
(-0.272382 -0.0851915 0)
(-0.220639 -0.123746 0)
(-0.148379 -0.141329 0)
(-0.065164 -0.116262 0)
(-0.0110207 -0.041748 0)
(-0.00619342 0.023872 0)
(-0.0315195 0.0565941 0)
(-0.0706599 0.0707956 0)
(-0.109637 0.0737573 0)
(-0.145965 0.0715526 0)
(-0.178658 0.0678499 0)
(-0.207751 0.0644176 0)
(-0.233722 0.0618022 0)
(-0.25707 0.0596742 0)
(-0.278043 0.0568714 0)
(-0.296396 0.0513682 0)
(-0.311192 0.0403705 0)
(-0.320655 0.0207123 0)
(-0.322095 -0.0102885 0)
(-0.31186 -0.0533559 0)
(-0.285431 -0.105004 0)
(-0.238225 -0.154495 0)
(-0.167458 -0.180969 0)
(-0.0789423 -0.155046 0)
(-0.0151112 -0.0610641 0)
(-0.0075842 0.0335003 0)
(-0.0366827 0.0746349 0)
(-0.0797645 0.0909475 0)
(-0.120906 0.0930884 0)
(-0.157846 0.0889891 0)
(-0.189886 0.0832 0)
(-0.217315 0.0778565 0)
(-0.24082 0.0736121 0)
(-0.261089 0.0700881 0)
(-0.278614 0.065957 0)
(-0.293514 0.0589362 0)
(-0.305412 0.0459042 0)
(-0.3133 0.0233059 0)
(-0.315365 -0.0120109 0)
(-0.308656 -0.0613527 0)
(-0.288664 -0.121836 0)
(-0.249368 -0.182714 0)
(-0.184253 -0.220609 0)
(-0.0941205 -0.197683 0)
(-0.020432 -0.0849431 0)
(-0.00911844 0.0446907 0)
(-0.0417917 0.0945945 0)
(-0.0878898 0.112306 0)
(-0.129767 0.112749 0)
(-0.165653 0.106009 0)
(-0.195325 0.0975564 0)
(-0.219449 0.0898626 0)
(-0.23898 0.0836636 0)
(-0.254831 0.0785362 0)
(-0.267753 0.0730327 0)
(-0.278256 0.0646974 0)
(-0.286551 0.0501862 0)
(-0.29245 0.0256415 0)
(-0.295112 -0.0125597 0)
(-0.292491 -0.0664954 0)
(-0.280455 -0.1344 0)
(-0.251994 -0.206483 0)
(-0.196932 -0.258092 0)
(-0.110132 -0.243006 0)
(-0.0272101 -0.11413 0)
(-0.0109491 0.0575124 0)
(-0.0470487 0.116166 0)
(-0.0950113 0.134227 0)
(-0.135909 0.131911 0)
(-0.168855 0.121733 0)
(-0.194345 0.110072 0)
(-0.213542 0.0996668 0)
(-0.227719 0.0912838 0)
(-0.238011 0.084446 0)
(-0.2454 0.0776232 0)
(-0.250744 0.0682682 0)
(-0.254795 0.0529242 0)
(-0.258149 0.0275363 0)
(-0.260974 -0.0119396 0)
(-0.262331 -0.0684478 0)
(-0.258948 -0.14175 0)
(-0.24358 -0.22398 0)
(-0.202945 -0.290907 0)
(-0.125627 -0.289151 0)
(-0.0354163 -0.149243 0)
(-0.0133099 0.0721531 0)
(-0.0527523 0.138984 0)
(-0.101076 0.155913 0)
(-0.138876 0.149603 0)
(-0.166705 0.135192 0)
(-0.186065 0.119878 0)
(-0.198733 0.106538 0)
(-0.206315 0.0958853 0)
(-0.210125 0.0873551 0)
(-0.211302 0.0793592 0)
(-0.210946 0.0693327 0)
(-0.210236 0.0538157 0)
(-0.210446 0.0286837 0)
(-0.212711 -0.0104144 0)
(-0.217359 -0.0672539 0)
(-0.222484 -0.143352 0)
(-0.221585 -0.233636 0)
(-0.199322 -0.31634 0)
(-0.138483 -0.333467 0)
(-0.0446003 -0.190513 0)
(-0.0165391 0.0889781 0)
(-0.0592884 0.162576 0)
(-0.105882 0.176338 0)
(-0.137876 0.164647 0)
(-0.158025 0.145294 0)
(-0.169148 0.12607 0)
(-0.173716 0.109788 0)
(-0.173625 0.0969745 0)
(-0.17028 0.0869244 0)
(-0.164853 0.0779994 0)
(-0.158543 0.0676788 0)
(-0.152789 0.0526062 0)
(-0.149372 0.0287321 0)
(-0.150281 -0.0084247 0)
(-0.157158 -0.063292 0)
(-0.169887 -0.139136 0)
(-0.183795 -0.2343 0)
(-0.182981 -0.331704 0)
(-0.145928 -0.372558 0)
(-0.0536861 -0.237482 0)
(-0.0210912 0.108602 0)
(-0.0670653 0.186243 0)
(-0.108814 0.194114 0)
(-0.131449 0.175584 0)
(-0.140879 0.150797 0)
(-0.141507 0.127715 0)
(-0.136481 0.108782 0)
(-0.127864 0.0941703 0)
(-0.116994 0.0829599 0)
(-0.104918 0.0734605 0)
(-0.0927597 0.0632472 0)
(-0.0820249 0.0491654 0)
(-0.0747994 0.0273923 0)
(-0.0737299 -0.0064627 0)
(-0.0816834 -0.0571756 0)
(-0.10055 -0.12949 0)
(-0.128513 -0.225396 0)
(-0.150939 -0.3346 0)
(-0.144726 -0.402443 0)
(-0.0607602 -0.288684 0)
(-0.0274878 0.131957 0)
(-0.0762841 0.208848 0)
(-0.108302 0.207294 0)
(-0.11686 0.180582 0)
(-0.112042 0.1503 0)
(-0.099883 0.123878 0)
(-0.084 0.102986 0)
(-0.0663599 0.0872444 0)
(-0.0480071 0.0754489 0)
(-0.0296661 0.065855 0)
(-0.0122046 0.0561805 0)
(0.00299625 0.0435619 0)
(0.0137632 0.0245461 0)
(0.017037 -0.00493077 0)
(0.0089486 -0.0496106 0)
(-0.0143164 -0.1152 0)
(-0.0545649 -0.20703 0)
(-0.100373 -0.323167 0)
(-0.131315 -0.418839 0)
(-0.0628795 -0.341326 0)
(-0.0360605 0.160251 0)
(-0.0862486 0.228385 0)
(-0.100674 0.2131 0)
(-0.0890524 0.177384 0)
(-0.066209 0.142314 0)
(-0.0393072 0.113735 0)
(-0.0118827 0.0920685 0)
(0.0146416 0.0762072 0)
(0.0398296 0.0646221 0)
(0.0634935 0.0555374 0)
(0.0851894 0.0468659 0)
(0.103824 0.0361156 0)
(0.117332 0.0203286 0)
(0.122497 -0.00402022 0)
(0.114763 -0.0412404 0)
(0.0887916 -0.097312 0)
(0.038873 -0.180034 0)
(-0.0284866 -0.296339 0)
(-0.101706 -0.417597 0)
(-0.0558097 -0.390961 0)
(-0.0460293 0.194533 0)
(-0.0933858 0.241076 0)
(-0.0778671 0.207481 0)
(-0.0389495 0.163358 0)
(0.00505556 0.125496 0)
(0.0474622 0.0968192 0)
(0.0858594 0.076106 0)
(0.120016 0.0614517 0)
(0.15047 0.0510485 0)
(0.177769 0.0431604 0)
(0.20201 0.0359661 0)
(0.222496 0.0274203 0)
(0.237405 0.0151596 0)
(0.243597 -0.00363956 0)
(0.236176 -0.0325124 0)
(0.208899 -0.0769529 0)
(0.152544 -0.145828 0)
(0.0677604 -0.254154 0)
(-0.0509353 -0.395256 0)
(-0.0334087 -0.430894 0)
(-0.0525081 0.234449 0)
(-0.0859316 0.239528 0)
(-0.0232795 0.18457 0)
(0.0488568 0.135837 0)
(0.114311 0.0991648 0)
(0.170162 0.0734533 0)
(0.216626 0.0558884 0)
(0.255369 0.0439547 0)
(0.288197 0.0357528 0)
(0.316479 0.0297302 0)
(0.340871 0.0244299 0)
(0.361083 0.0183231 0)
(0.375603 0.00970607 0)
(0.381552 -0.00344208 0)
(0.374034 -0.023659 0)
(0.346654 -0.0552741 0)
(0.287573 -0.106435 0)
(0.192033 -0.197724 0)
(0.0284589 -0.348575 0)
(0.0139791 -0.450686 0)
(-0.0365963 0.274604 0)
(-0.0313626 0.211882 0)
(0.0941114 0.138693 0)
(0.198007 0.0941063 0)
(0.278115 0.0647213 0)
(0.340055 0.045684 0)
(0.388009 0.0335014 0)
(0.425815 0.025626 0)
(0.45648 0.020417 0)
(0.482023 0.0167107 0)
(0.503477 0.0135229 0)
(0.520851 0.00988977 0)
(0.532936 0.00478024 0)
(0.537267 -0.00300568 0)
(0.52933 -0.01496 0)
(0.503368 -0.0338146 0)
(0.446279 -0.06532 0)
(0.349727 -0.130268 0)
(0.149564 -0.272594 0)
(0.103111 -0.433398 0)
(0.0704843 0.284195 0)
(0.146662 0.150101 0)
(0.323177 0.0761358 0)
(0.437805 0.0459516 0)
(0.513071 0.0291619 0)
(0.566118 0.0192587 0)
(0.604561 0.0134617 0)
(0.633376 0.00997734 0)
(0.65591 0.00779406 0)
(0.67419 0.00629103 0)
(0.689211 0.00499484 0)
(0.701049 0.00347128 0)
(0.708776 0.00127358 0)
(0.71051 -0.00209505 0)
(0.70268 -0.00726008 0)
(0.681021 -0.0154009 0)
(0.633501 -0.0291596 0)
(0.551753 -0.0623117 0)
(0.340388 -0.166424 0)
(0.266666 -0.34397 0)
(0.489761 0.141196 0)
(0.585764 0.0606818 0)
(0.718988 0.0235417 0)
(0.787028 0.0116006 0)
(0.823224 0.00638076 0)
(0.84616 0.00373912 0)
(0.861676 0.00239844 0)
(0.872768 0.00169041 0)
(0.881221 0.00128956 0)
(0.887988 0.0010268 0)
(0.893458 0.000788169 0)
(0.897576 0.00047642 0)
(0.899817 -5.42141e-06 0)
(0.899245 -0.00075503 0)
(0.894138 -0.00190611 0)
(0.882644 -0.00370493 0)
(0.858196 -0.00671079 0)
(0.816769 -0.0146523 0)
(0.674131 -0.0503135 0)
(0.591298 -0.135137 0)
)
;

boundaryField
{
    movingWall
    {
        type            fixedValue;
        value           uniform (1 0 0);
    }
    fixedWalls
    {
        type            noSlip;
    }
    frontAndBack
    {
        type            empty;
    }
}


// ************************************************************************* //
