/*--------------------------------*- C++ -*----------------------------------*\
  =========                 |
  \\      /  F ield         | OpenFOAM: The Open Source CFD Toolbox
   \\    /   O peration     | Website:  https://openfoam.org
    \\  /    A nd           | Version:  9
     \\/     M anipulation  |
\*---------------------------------------------------------------------------*/
FoamFile
{
    format      ascii;
    class       volScalarField;
    location    "0.5";
    object      p;
}
// * * * * * * * * * * * * * * * * * * * * * * * * * * * * * * * * * * * * * //

dimensions      [ 0 2 -2 0 0 0 0 ];

internalField   nonuniform List<scalar> 
400
(
6.48924e-09
-7.62029e-05
-7.31766e-05
1.08964e-05
0.000175729
0.000422367
0.000753922
0.00117514
0.00168965
0.00229562
0.00298058
0.0037159
0.00445053
0.00511585
0.00563397
0.00594286
0.00602656
0.00593184
0.00575649
0.00561163
7.95516e-05
1.29172e-06
2.18507e-05
0.00012075
0.000290595
0.000533959
0.000855314
0.00125972
0.00175076
0.00232698
0.002977
0.00367417
0.0043741
0.00500848
0.0055014
0.00579196
0.00586645
0.0057762
0.00561959
0.00547693
6.257e-05
-3.66235e-05
-1.53469e-05
8.63251e-05
0.000253441
0.000488557
0.000797387
0.00118688
0.00166344
0.00222954
0.00287854
0.00358815
0.00431283
0.00497902
0.00549628
0.0057864
0.00582732
0.00568099
0.00547059
0.00528897
-7.99223e-05
-0.000200978
-0.000186004
-8.94476e-05
6.80806e-05
0.000289205
0.000581269
0.000954223
0.00141916
0.001985
0.0026522
0.00340411
0.00419751
0.00494522
0.00552895
0.00583611
0.00582568
0.00557556
0.0052592
0.00501464
-0.00037462
-0.000512312
-0.00050643
-0.000421085
-0.000280193
-8.04124e-05
0.000187646
0.000537473
0.000985833
0.00154994
0.00224024
0.0030488
0.0039444
0.00482102
0.00551959
0.00587047
0.005797
0.00539697
0.00491555
0.00457378
-0.000837727
-0.000988169
-0.000994719
-0.000927674
-0.000812724
-0.000645683
-0.00041539
-0.000105289
0.000306583
0.000846259
0.00153855
0.002393
0.0033954
0.0044424
0.00532482
0.00578137
0.00566186
0.00507707
0.00435177
0.0038464
-0.00147512
-0.00163629
-0.00166
-0.00162057
-0.00154498
-0.00142909
-0.00126166
-0.00102564
-0.000697471
-0.000246414
0.00036703
0.00118432
0.00220587
0.00341252
0.00456322
0.00527417
0.00524094
0.00452715
0.00351843
0.00261752
-0.0022845
-0.00245568
-0.00250263
-0.00250266
-0.00248473
-0.0024471
-0.00238241
-0.00227953
-0.00212333
-0.00189435
-0.00156029
-0.0010558
-0.000283679
0.000875669
0.0022994
0.00353095
0.004018
0.00355437
0.00237257
0.000713856
-0.00325597
-0.00343716
-0.00351382
-0.00356636
-0.00362772
-0.00370256
-0.00379435
-0.00390957
-0.00406178
-0.00427858
-0.00459088
-0.00494893
-0.00508119
-0.00459105
-0.00320785
-0.00119785
0.000679075
0.00153656
0.000775145
-0.00203053
-0.00437198
-0.00456313
-0.00467413
-0.00478976
-0.00495026
-0.00517232
-0.00547959
-0.00591292
-0.00654464
-0.00750282
-0.00896536
-0.0109866
-0.0131121
-0.0142856
-0.0136983
-0.0109662
-0.00678882
-0.00294783
-0.00190048
-0.00521957
-0.00560815
-0.00580836
-0.00595266
-0.00613308
-0.00640182
-0.00679362
-0.00736163
-0.00819775
-0.0094635
-0.0114379
-0.0145078
-0.0188675
-0.0238984
-0.0278324
-0.028763
-0.0257459
-0.0191783
-0.0112426
-0.00633762
-0.00744498
-0.00693622
-0.00714276
-0.00730833
-0.00753778
-0.00790132
-0.00845612
-0.00928915
-0.0105497
-0.0124979
-0.0155704
-0.0203519
-0.0271288
-0.0351031
-0.0419436
-0.0446844
-0.0420491
-0.0340996
-0.02253
-0.0123213
-0.00826075
-0.00833067
-0.00853744
-0.00869437
-0.00893033
-0.00934189
-0.0100095
-0.0110489
-0.0126549
-0.0151598
-0.0190988
-0.0251588
-0.0336018
-0.0434693
-0.0520818
-0.0561971
-0.0543596
-0.0464836
-0.0332649
-0.0186621
-0.00900675
-0.0097808
-0.00997446
-0.0100655
-0.0102307
-0.0106062
-0.0112922
-0.0124186
-0.0142001
-0.0169911
-0.0213223
-0.027888
-0.0368305
-0.0471785
-0.0562117
-0.0608216
-0.0595928
-0.0525807
-0.0396933
-0.0235227
-0.00981263
-0.0113114
-0.0114628
-0.011388
-0.0113646
-0.0115893
-0.0121719
-0.0132369
-0.0149919
-0.0177763
-0.0219776
-0.0283454
-0.0368282
-0.0464497
-0.054772
-0.0592416
-0.0582433
-0.0521737
-0.0404764
-0.0247971
-0.00835978
-0.01302
-0.0130522
-0.0126329
-0.0122643
-0.0122157
-0.0125785
-0.013448
-0.0149949
-0.0175055
-0.0213825
-0.0270481
-0.0344698
-0.0427459
-0.0498118
-0.0533863
-0.0525898
-0.0470291
-0.0362045
-0.0209251
0.000110088
-0.0152324
-0.0149292
-0.0138355
-0.0129042
-0.0124629
-0.0125208
-0.0131146
-0.014367
-0.0165413
-0.0199474
-0.0248636
-0.0312122
-0.0382148
-0.0441576
-0.0470387
-0.0455064
-0.0390874
-0.026679
-0.00829689
0.0251527
-0.0187814
-0.0172027
-0.0147385
-0.0131488
-0.0123343
-0.0120967
-0.0124149
-0.0133919
-0.0152609
-0.0182809
-0.0226619
-0.0282706
-0.0344049
-0.0394761
-0.0414742
-0.0382462
-0.0282674
-0.00838426
0.0244981
0.0811589
-0.0229076
-0.0208934
-0.0165379
-0.0135454
-0.0121019
-0.0114939
-0.0115512
-0.0123224
-0.0140104
-0.016823
-0.0209272
-0.0260993
-0.0316506
-0.0359027
-0.036603
-0.030234
-0.0126771
0.0236118
0.0857108
0.180744
-0.0556336
-0.0221387
-0.0112008
-0.00878993
-0.00810733
-0.00789838
-0.00828818
-0.00941711
-0.0114519
-0.0145114
-0.0187339
-0.0238002
-0.0290073
-0.0324511
-0.0314698
-0.0210741
0.00586183
0.0635315
0.163655
0.306615
)
;

boundaryField
{
    movingWall
    {
        type            zeroGradient;
    }
    fixedWalls
    {
        type            zeroGradient;
    }
    frontAndBack
    {
        type            empty;
    }
}


// ************************************************************************* //
