/*--------------------------------*- C++ -*----------------------------------*\
  =========                 |
  \\      /  F ield         | OpenFOAM: The Open Source CFD Toolbox
   \\    /   O peration     | Website:  https://openfoam.org
    \\  /    A nd           | Version:  9
     \\/     M anipulation  |
\*---------------------------------------------------------------------------*/
FoamFile
{
    format      ascii;
    class       surfaceScalarField;
    location    "0.5";
    object      phi;
}
// * * * * * * * * * * * * * * * * * * * * * * * * * * * * * * * * * * * * * //

dimensions      [ 0 3 -1 0 0 0 0 ];

internalField   nonuniform List<scalar> 
760
(
-1.83855e-08
1.8385e-08
-8.27556e-08
6.43702e-08
-1.72508e-07
8.97523e-08
-2.72323e-07
9.9816e-08
-3.75287e-07
1.02964e-07
-4.78315e-07
1.03028e-07
-5.78947e-07
1.00632e-07
-6.73498e-07
9.45505e-08
-7.56045e-07
8.25475e-08
-8.18075e-07
6.20305e-08
-8.4894e-07
3.0865e-08
-8.36923e-07
-1.20165e-08
-7.73386e-07
-6.35378e-08
-6.5633e-07
-1.17056e-07
-4.95904e-07
-1.60426e-07
-3.16295e-07
-1.79609e-07
-1.51874e-07
-1.64421e-07
-3.63654e-08
-1.15509e-07
1.09874e-08
-4.73528e-08
1.09874e-08
-7.11385e-08
8.95236e-08
-2.27253e-07
2.20485e-07
-4.28244e-07
2.90743e-07
-6.49493e-07
3.21065e-07
-8.77037e-07
3.30508e-07
-1.10234e-06
3.28334e-07
-1.31793e-06
3.16221e-07
-1.51445e-06
2.91065e-07
-1.67906e-06
2.47158e-07
-1.79513e-06
1.781e-07
-1.84331e-06
7.90463e-08
-1.80504e-06
-5.02831e-08
-1.66561e-06
-2.02969e-07
-1.42482e-06
-3.57845e-07
-1.10252e-06
-4.82725e-07
-7.42611e-07
-5.39517e-07
-4.06761e-07
-5.00271e-07
-1.55455e-07
-3.66815e-07
-2.31858e-08
-1.79622e-07
-1.21983e-08
-1.09917e-07
1.99441e-07
-3.30726e-07
4.41295e-07
-6.06077e-07
5.66095e-07
-9.05305e-07
6.20293e-07
-1.21103e-06
6.3623e-07
-1.51196e-06
6.29264e-07
-1.79791e-06
6.02172e-07
-2.05654e-06
5.49693e-07
-2.27156e-06
4.6218e-07
-2.4223e-06
3.2884e-07
-2.48485e-06
1.41595e-07
-2.43489e-06
-1.00243e-07
-2.25309e-06
-3.84768e-07
-1.9356e-06
-6.75329e-07
-1.50485e-06
-9.13477e-07
-1.01754e-06
-1.02682e-06
-5.59243e-07
-9.58572e-07
-2.16419e-07
-7.09639e-07
-3.53699e-08
-3.60672e-07
-4.75682e-08
-1.34326e-07
3.33767e-07
-3.99058e-07
7.06028e-07
-7.24846e-07
8.91882e-07
-1.07629e-06
9.71737e-07
-1.4345e-06
9.94437e-07
-1.7877e-06
9.82465e-07
-2.12543e-06
9.399e-07
-2.4349e-06
8.5917e-07
-2.69889e-06
7.26162e-07
-2.89454e-06
5.24496e-07
-2.99368e-06
2.40734e-07
-2.96506e-06
-1.28861e-07
-2.77666e-06
-5.73168e-07
-2.41179e-06
-1.04019e-06
-1.88574e-06
-1.43953e-06
-1.26518e-06
-1.64739e-06
-6.69628e-07
-1.55412e-06
-2.31494e-07
-1.14777e-06
-2.11369e-08
-5.71029e-07
-6.87052e-08
-1.48978e-07
4.82745e-07
-4.42292e-07
9.99341e-07
-8.02142e-07
1.25173e-06
-1.19009e-06
1.35969e-06
-1.58723e-06
1.39157e-06
-1.98314e-06
1.37837e-06
-2.36931e-06
1.32607e-06
-2.73504e-06
1.2249e-06
-3.06467e-06
1.05579e-06
-3.3352e-06
7.95025e-07
-3.51401e-06
4.1954e-07
-3.56167e-06
-8.11964e-08
-3.42149e-06
-7.13349e-07
-3.0492e-06
-1.41248e-06
-2.4347e-06
-2.05403e-06
-1.64498e-06
-2.4371e-06
-8.44948e-07
-2.35416e-06
-2.49897e-07
-1.74282e-06
6.21631e-09
-8.27143e-07
-6.24889e-08
-1.56995e-07
6.3974e-07
-4.67987e-07
1.31033e-06
-8.50653e-07
1.6344e-06
-1.26525e-06
1.77428e-06
-1.69418e-06
1.8205e-06
-2.13011e-06
1.8143e-06
-2.56882e-06
1.76478e-06
-3.00473e-06
1.66081e-06
-3.42743e-06
1.47849e-06
-3.81777e-06
1.18537e-06
-4.14197e-06
7.43741e-07
-4.34642e-06
1.2325e-07
-4.34711e-06
-7.12663e-07
-4.04322e-06
-1.71636e-06
-3.37044e-06
-2.72681e-06
-2.37179e-06
-3.43575e-06
-1.25444e-06
-3.47151e-06
-3.58193e-07
-2.63907e-06
3.55086e-08
-1.22084e-06
-2.69801e-08
-1.60142e-07
7.99881e-07
-4.80724e-07
1.63091e-06
-8.77782e-07
2.03145e-06
-1.31162e-06
2.20812e-06
-1.76709e-06
2.27598e-06
-2.24159e-06
2.28881e-06
-2.73775e-06
2.26094e-06
-3.25895e-06
2.18201e-06
-3.80562e-06
2.02516e-06
-4.36956e-06
1.74931e-06
-4.92248e-06
1.29666e-06
-5.39234e-06
5.93108e-07
-5.66544e-06
-4.39566e-07
-5.55069e-06
-1.83111e-06
-4.89918e-06
-3.37833e-06
-3.69315e-06
-4.64178e-06
-2.14251e-06
-5.02215e-06
-7.16021e-07
-4.06557e-06
1.06363e-08
-1.9475e-06
-1.63436e-08
-1.59254e-07
9.59135e-07
-4.82666e-07
1.95433e-06
-8.8652e-07
2.43531e-06
-1.33191e-06
2.6535e-06
-1.80689e-06
2.75096e-06
-2.31488e-06
2.7968e-06
-2.86787e-06
2.81393e-06
-3.48255e-06
2.79669e-06
-4.17666e-06
2.71928e-06
-4.96112e-06
2.53377e-06
-5.81952e-06
2.15506e-06
-6.6661e-06
1.43969e-06
-7.33141e-06
2.25747e-07
-7.53572e-06
-1.62681e-06
-7.03615e-06
-3.87789e-06
-5.72794e-06
-5.94999e-06
-3.73492e-06
-7.01517e-06
-1.54896e-06
-6.25153e-06
-1.27819e-07
-3.36864e-06
-1.44163e-07
-1.54734e-07
1.11387e-06
-4.74688e-07
2.27428e-06
-8.77267e-07
2.83789e-06
-1.32431e-06
3.10054e-06
-1.80708e-06
3.23373e-06
-2.33561e-06
3.32533e-06
-2.93273e-06
3.41105e-06
-3.63136e-06
3.49532e-06
-4.47077e-06
3.55869e-06
-5.48399e-06
3.54698e-06
-6.66538e-06
3.33646e-06
-7.91723e-06
2.69153e-06
-8.9871e-06
1.29562e-06
-9.56306e-06
-1.05085e-06
-9.36142e-06
-4.07954e-06
-8.19497e-06
-7.11643e-06
-5.99717e-06
-9.21297e-06
-3.05915e-06
-9.18955e-06
-5.39985e-07
-5.8878e-06
-6.84148e-07
-1.47217e-07
1.26109e-06
-4.57962e-07
2.58502e-06
-8.50355e-07
3.23028e-06
-1.28598e-06
3.53617e-06
-1.75836e-06
3.7061e-06
-2.28307e-06
3.85004e-06
-2.89255e-06
4.02054e-06
-3.634e-06
4.23676e-06
-4.56418e-06
4.48886e-06
-5.72983e-06
4.71263e-06
-7.12252e-06
4.72916e-06
-8.61964e-06
4.18865e-06
-9.97316e-06
2.64915e-06
-1.08039e-05
-2.20073e-07
-1.1e-05
-3.88345e-06
-1.0283e-05
-7.83349e-06
-8.37724e-06
-1.11187e-05
-5.15201e-06
-1.24148e-05
-1.43646e-06
-9.60335e-06
-2.12061e-06
-1.38361e-07
1.39945e-06
-4.35831e-07
2.88249e-06
-8.0903e-07
3.60348e-06
-1.21736e-06
3.9445e-06
-1.65453e-06
4.14328e-06
-2.13861e-06
4.33411e-06
-2.70622e-06
4.58814e-06
-3.40955e-06
4.9401e-06
-4.30812e-06
5.38743e-06
-5.44326e-06
5.84777e-06
-6.79144e-06
6.07734e-06
-8.22387e-06
5.62108e-06
-9.52748e-06
3.95276e-06
-1.05273e-05
7.79777e-07
-1.10462e-05
-3.36453e-06
-1.09658e-05
-7.91393e-06
-9.86146e-06
-1.22231e-05
-7.13476e-06
-1.51415e-05
-2.79281e-06
-1.39453e-05
-4.91341e-06
-1.31748e-07
1.53119e-06
-4.15846e-07
3.16659e-06
-7.62595e-07
3.95023e-06
-1.12669e-06
4.3086e-06
-1.49973e-06
4.51633e-06
-1.89776e-06
4.73214e-06
-2.35316e-06
5.04354e-06
-2.90929e-06
5.49624e-06
-3.61037e-06
6.0885e-06
-4.47847e-06
6.71587e-06
-5.48256e-06
7.08143e-06
-6.52808e-06
6.6666e-06
-7.50998e-06
4.93466e-06
-8.42431e-06
1.6941e-06
-9.17863e-06
-2.61021e-06
-9.71291e-06
-7.37965e-06
-9.61368e-06
-1.23223e-05
-7.9974e-06
-1.67578e-05
-4.06779e-06
-1.78749e-05
-8.98121e-06
-1.34002e-07
1.6652e-06
-4.11903e-07
3.44449e-06
-7.29199e-07
4.26752e-06
-1.03388e-06
4.61327e-06
-1.31464e-06
4.79709e-06
-1.58222e-06
4.99972e-06
-1.85752e-06
5.31884e-06
-2.16453e-06
5.80325e-06
-2.52263e-06
6.44661e-06
-2.93624e-06
7.12948e-06
-3.3928e-06
7.53799e-06
-3.87471e-06
7.14851e-06
-4.40325e-06
5.46319e-06
-5.07159e-06
2.36244e-06
-5.92062e-06
-1.76117e-06
-6.8992e-06
-6.40106e-06
-7.6992e-06
-1.15223e-05
-7.375e-06
-1.7082e-05
-4.64109e-06
-2.06088e-05
-1.36223e-05
-1.56509e-07
1.82171e-06
-4.4673e-07
3.73471e-06
-7.37726e-07
4.55852e-06
-9.71651e-07
4.8472e-06
-1.13802e-06
4.96346e-06
-1.24305e-06
5.10475e-06
-1.29439e-06
5.37018e-06
-1.29508e-06
5.80393e-06
-1.24226e-06
6.39379e-06
-1.13226e-06
7.01948e-06
-9.92704e-07
7.39843e-06
-9.05949e-07
7.06176e-06
-9.88888e-07
5.54613e-06
-1.37459e-06
2.74815e-06
-2.22394e-06
-9.11831e-07
-3.47007e-06
-5.15493e-06
-4.93814e-06
-1.00542e-05
-5.72731e-06
-1.62928e-05
-4.25118e-06
-2.20849e-05
-1.78735e-05
-2.1835e-07
2.04006e-06
-5.55383e-07
4.07174e-06
-8.28756e-07
4.83189e-06
-9.83179e-07
5.00162e-06
-1.02052e-06
5.0008e-06
-9.48387e-07
5.03262e-06
-7.64489e-07
5.18629e-06
-4.56354e-07
5.49579e-06
4.87014e-10
5.93695e-06
5.87541e-07
6.43243e-06
1.25481e-06
6.73116e-06
1.86288e-06
6.45368e-06
2.19542e-06
5.21359e-06
2.04489e-06
2.89868e-06
1.21674e-06
-8.369e-08
-1.6452e-07
-3.77367e-06
-2.02476e-06
-8.19398e-06
-3.64743e-06
-1.46701e-05
-3.36481e-06
-2.23676e-05
-2.12383e-05
-3.54685e-07
2.39474e-06
-7.92969e-07
4.51003e-06
-1.05252e-06
5.09145e-06
-1.11312e-06
5.06222e-06
-1.0111e-06
4.89878e-06
-7.62737e-07
4.78425e-06
-3.60093e-07
4.78364e-06
2.2053e-07
4.91517e-06
9.85459e-07
5.17202e-06
1.94356e-06
5.47432e-06
3.0196e-06
5.65513e-06
4.02804e-06
5.44525e-06
4.68547e-06
4.55617e-06
4.72326e-06
2.86088e-06
4.09729e-06
5.4229e-07
2.69454e-06
-2.37092e-06
7.31957e-07
-6.2314e-06
-1.3624e-06
-1.25758e-05
-2.27592e-06
-2.1454e-05
-2.35142e-05
-6.35617e-07
3.03036e-06
-1.24538e-06
5.11979e-06
-1.47288e-06
5.31895e-06
-1.40683e-06
4.99616e-06
-1.148e-06
4.63995e-06
-7.23952e-07
4.3602e-06
-1.26431e-07
4.18612e-06
6.65782e-07
4.12296e-06
1.66977e-06
4.16804e-06
2.87632e-06
4.26777e-06
4.20507e-06
4.32638e-06
5.47561e-06
4.17471e-06
6.40251e-06
3.62927e-06
6.71415e-06
2.54924e-06
6.29041e-06
9.66031e-07
5.11799e-06
-1.1985e-06
3.32131e-06
-4.43472e-06
1.05758e-06
-1.0312e-05
-5.50997e-07
-1.98455e-05
-2.40652e-05
-1.25e-06
4.28036e-06
-2.11781e-06
5.9876e-06
-2.207e-06
5.40814e-06
-1.83188e-06
4.62104e-06
-1.22725e-06
4.03532e-06
-4.64296e-07
3.59725e-06
4.45964e-07
3.27586e-06
1.51076e-06
3.05817e-06
2.74254e-06
2.93626e-06
4.13413e-06
2.87618e-06
5.6241e-06
2.83641e-06
7.08325e-06
2.71556e-06
8.28376e-06
2.42875e-06
8.98714e-06
1.84587e-06
9.0185e-06
9.34667e-07
8.3367e-06
-5.16697e-07
6.96663e-06
-3.06466e-06
4.6391e-06
-7.9845e-06
1.63974e-06
-1.68461e-05
-2.24255e-05
-4.05723e-06
8.33759e-06
-3.39366e-06
5.32402e-06
-1.44441e-06
3.45889e-06
4.0563e-07
2.77101e-06
2.11584e-06
2.32511e-06
3.74168e-06
1.97141e-06
5.31717e-06
1.70037e-06
6.87162e-06
1.50372e-06
8.43195e-06
1.37593e-06
1.00215e-05
1.28661e-06
1.16298e-05
1.22811e-06
1.32008e-05
1.14453e-06
1.46089e-05
1.02074e-06
1.56834e-05
7.71361e-07
1.6217e-05
4.0098e-07
1.59706e-05
-2.70233e-07
1.47204e-05
-1.81448e-06
1.16915e-05
-4.95557e-06
5.88705e-06
-1.10417e-05
-1.65384e-05
8.33759e-06
1.36616e-05
1.71205e-05
1.98915e-05
2.22166e-05
2.4188e-05
2.58884e-05
2.73921e-05
2.8768e-05
3.00547e-05
3.12828e-05
3.24273e-05
3.3448e-05
3.42194e-05
3.46204e-05
3.43501e-05
3.25357e-05
2.75801e-05
1.65384e-05
)
;

boundaryField
{
    movingWall
    {
        type            calculated;
        value           uniform 0;
    }
    fixedWalls
    {
        type            calculated;
        value           uniform 0;
    }
    frontAndBack
    {
        type            empty;
        value           nonuniform 0 ( );
    }
}


// ************************************************************************* //
