/*--------------------------------*- C++ -*----------------------------------*\
  =========                 |
  \\      /  F ield         | OpenFOAM: The Open Source CFD Toolbox
   \\    /   O peration     | Website:  https://openfoam.org
    \\  /    A nd           | Version:  9
     \\/     M anipulation  |
\*---------------------------------------------------------------------------*/
FoamFile
{
    format      ascii;
    class       volVectorField;
    location    "0.5";
    object      U;
}
// * * * * * * * * * * * * * * * * * * * * * * * * * * * * * * * * * * * * * //

dimensions      [ 0 1 -1 0 0 0 0 ];

internalField   nonuniform List<vector> 
400
(
(-6.74781e-05 4.99633e-05 0)
(-0.000838481 0.000418063 0)
(-0.00247726 0.000627003 0)
(-0.00442307 0.000704518 0)
(-0.00647227 0.000729435 0)
(-0.00854582 0.000737888 0)
(-0.0105968 0.000735672 0)
(-0.0125682 0.000712074 0)
(-0.0143663 0.0006473 0)
(-0.0158461 0.000517511 0)
(-0.0168117 0.000301142 0)
(-0.0170322 -1.23427e-05 0)
(-0.0162912 -0.000414111 0)
(-0.0144683 -0.000842323 0)
(-0.011637 -0.00119627 0)
(-0.00814449 -0.00135426 0)
(-0.00459176 -0.00122598 0)
(-0.00167613 -0.000813156 0)
(5.00408e-05 -0.000237542 0)
(0.000281417 0.000218115 0)
(-0.000500478 0.000870635 0)
(-0.00264754 0.0024703 0)
(-0.00638625 0.00334953 0)
(-0.0107233 0.0037192 0)
(-0.0152644 0.00383923 0)
(-0.0198296 0.00383504 0)
(-0.0242775 0.00372852 0)
(-0.0284484 0.00347858 0)
(-0.0321236 0.00300966 0)
(-0.0350052 0.00223516 0)
(-0.0367247 0.00108526 0)
(-0.036885 -0.000454819 0)
(-0.0351291 -0.00229573 0)
(-0.0312832 -0.00418221 0)
(-0.0255282 -0.00570489 0)
(-0.0185069 -0.00638636 0)
(-0.0113078 -0.00588223 0)
(-0.00520059 -0.00421573 0)
(-0.00120233 -0.00188261 0)
(8.51809e-05 0.000136521 0)
(-0.000824416 0.00277239 0)
(-0.00396805 0.00637735 0)
(-0.00915118 0.00827939 0)
(-0.0150503 0.00910992 0)
(-0.0211702 0.00936482 0)
(-0.0272873 0.00928419 0)
(-0.03321 0.00891169 0)
(-0.0387229 0.00816522 0)
(-0.0435434 0.00689453 0)
(-0.0472982 0.0049321 0)
(-0.0495302 0.00215256 0)
(-0.0497382 -0.00144948 0)
(-0.0474566 -0.00565887 0)
(-0.042417 -0.00992857 0)
(-0.034778 -0.0133774 0)
(-0.0253226 -0.0149618 0)
(-0.0155118 -0.0139082 0)
(-0.00715741 -0.0102659 0)
(-0.0017218 -0.00516163 0)
(6.24146e-05 -0.000562695 0)
(-0.0010189 0.00526372 0)
(-0.00482128 0.0113294 0)
(-0.0109929 0.0144069 0)
(-0.0179436 0.0157387 0)
(-0.0251169 0.0161214 0)
(-0.0322846 0.0159276 0)
(-0.0392513 0.0152245 0)
(-0.0457957 0.0138847 0)
(-0.051623 0.0116746 0)
(-0.0563307 0.00833035 0)
(-0.059402 0.00364693 0)
(-0.0602266 -0.00240494 0)
(-0.0581404 -0.00953142 0)
(-0.0526038 -0.0168747 0)
(-0.0435449 -0.0229662 0)
(-0.0317299 -0.0259383 0)
(-0.0190414 -0.024274 0)
(-0.0081678 -0.0179559 0)
(-0.00141884 -0.00908529 0)
(0.000346068 -0.00119017 0)
(-0.00112751 0.00812252 0)
(-0.00534378 0.0169595 0)
(-0.0121742 0.0213176 0)
(-0.019845 0.0231825 0)
(-0.0277701 0.0237137 0)
(-0.035747 0.0234394 0)
(-0.043617 0.022457 0)
(-0.0512016 0.0205932 0)
(-0.0582459 0.0175196 0)
(-0.0643665 0.0128455 0)
(-0.0690156 0.00622274 0)
(-0.0714602 -0.00249563 0)
(-0.0707196 -0.0130312 0)
(-0.0657132 -0.024348 0)
(-0.0557776 -0.0342785 0)
(-0.0413419 -0.0397049 0)
(-0.0246576 -0.0376993 0)
(-0.00975127 -0.0277735 0)
(-0.000736065 -0.0135082 0)
(0.000902511 -0.00133495 0)
(-0.00117941 0.0112 0)
(-0.00563719 0.0230355 0)
(-0.0128923 0.028777 0)
(-0.0210627 0.0312364 0)
(-0.0295618 0.0319917 0)
(-0.0382395 0.031757 0)
(-0.0470137 0.0306774 0)
(-0.055802 0.0285403 0)
(-0.0644592 0.0249168 0)
(-0.0727048 0.0192549 0)
(-0.0800312 0.010974 0)
(-0.0855868 -0.000367537 0)
(-0.0880025 -0.0147422 0)
(-0.08532 -0.03125 0)
(-0.0756839 -0.0470063 0)
(-0.058644 -0.057092 0)
(-0.0364415 -0.056025 0)
(-0.0145754 -0.0416812 0)
(-0.000539513 -0.0193806 0)
(0.00164742 -0.000801212 0)
(-0.00118996 0.0143848 0)
(-0.00576172 0.0293764 0)
(-0.0132663 0.0366013 0)
(-0.0217705 0.0397444 0)
(-0.0307099 0.0408514 0)
(-0.0400106 0.040862 0)
(-0.0497069 0.0400004 0)
(-0.0598753 0.0380426 0)
(-0.0705742 0.0344755 0)
(-0.0817611 0.0285746 0)
(-0.0931254 0.0194323 0)
(-0.103765 0.00602658 0)
(-0.111844 -0.0124189 0)
(-0.114115 -0.0355237 0)
(-0.10685 -0.059945 0)
(-0.0881907 -0.0784379 0)
(-0.0596242 -0.0815908 0)
(-0.027139 -0.0633608 0)
(-0.00250085 -0.0292681 0)
(0.00254792 1.58471e-05 0)
(-0.00116605 0.0175897 0)
(-0.00574649 0.0358378 0)
(-0.0133504 0.0446359 0)
(-0.0220305 0.048563 0)
(-0.0312569 0.0501802 0)
(-0.0410484 0.050703 0)
(-0.051591 0.0504881 0)
(-0.063184 0.0493587 0)
(-0.0761956 0.0467761 0)
(-0.090981 0.0418649 0)
(-0.107634 0.0332768 0)
(-0.125357 0.0189815 0)
(-0.141551 -0.00340704 0)
(-0.151281 -0.0346222 0)
(-0.148843 -0.0711397 0)
(-0.130983 -0.103028 0)
(-0.0975773 -0.116081 0)
(-0.0526677 -0.0977332 0)
(-0.0100798 -0.0482764 0)
(0.0031126 -0.000417379 0)
(-0.00111138 0.0207389 0)
(-0.00560559 0.0422915 0)
(-0.0131628 0.0527281 0)
(-0.0218373 0.0575227 0)
(-0.0311311 0.0598003 0)
(-0.041158 0.0611152 0)
(-0.0522727 0.0620334 0)
(-0.0650373 0.0625201 0)
(-0.0801991 0.0621093 0)
(-0.0986124 0.0598066 0)
(-0.120891 0.0536326 0)
(-0.146329 0.0399614 0)
(-0.1712 0.0139129 0)
(-0.188868 -0.0272538 0)
(-0.192819 -0.0791761 0)
(-0.1794 -0.129216 0)
(-0.146149 -0.159024 0)
(-0.0926342 -0.148614 0)
(-0.028954 -0.0849204 0)
(0.00197026 -0.00593123 0)
(-0.00103322 0.0237647 0)
(-0.00536023 0.0486164 0)
(-0.012726 0.0607091 0)
(-0.0211775 0.0663975 0)
(-0.0302279 0.0694204 0)
(-0.0400639 0.071741 0)
(-0.0511848 0.074223 0)
(-0.0643836 0.0770825 0)
(-0.0807298 0.0800175 0)
(-0.101466 0.0818699 0)
(-0.127559 0.079667 0)
(-0.158267 0.0675389 0)
(-0.188984 0.0377353 0)
(-0.211793 -0.014168 0)
(-0.221674 -0.0831277 0)
(-0.216197 -0.153366 0)
(-0.190442 -0.205582 0)
(-0.138815 -0.214398 0)
(-0.0635788 -0.148399 0)
(-0.00421911 -0.0238221 0)
(-0.000950229 0.0266198 0)
(-0.00506486 0.0547093 0)
(-0.0121152 0.0683965 0)
(-0.020102 0.0748968 0)
(-0.0285113 0.0786124 0)
(-0.0375535 0.081976 0)
(-0.0477911 0.0862159 0)
(-0.0601069 0.0918635 0)
(-0.0756578 0.0987881 0)
(-0.0957355 0.105501 0)
(-0.121298 0.107665 0)
(-0.151436 0.0969813 0)
(-0.181532 0.0635624 0)
(-0.205028 0.00269759 0)
(-0.218789 -0.0795747 0)
(-0.222286 -0.167166 0)
(-0.210365 -0.243548 0)
(-0.173077 -0.282535 0)
(-0.10498 -0.235422 0)
(-0.0190497 -0.0623782 0)
(-0.000901973 0.0293065 0)
(-0.0048362 0.0605195 0)
(-0.011509 0.0756207 0)
(-0.0188003 0.0826868 0)
(-0.0261256 0.0868323 0)
(-0.0336584 0.0909876 0)
(-0.0419032 0.0967477 0)
(-0.0516163 0.104927 0)
(-0.0637185 0.115472 0)
(-0.0791798 0.126428 0)
(-0.0987706 0.132158 0)
(-0.121804 0.122612 0)
(-0.144752 0.0870956 0)
(-0.163593 0.0218885 0)
(-0.178039 -0.0656407 0)
(-0.189744 -0.162832 0)
(-0.193791 -0.258406 0)
(-0.177761 -0.332125 0)
(-0.130329 -0.325122 0)
(-0.038331 -0.131116 0)
(-0.000962132 0.0319255 0)
(-0.0048864 0.0661055 0)
(-0.0112372 0.0822688 0)
(-0.0176626 0.0894365 0)
(-0.0234858 0.0934937 0)
(-0.0288149 0.0978452 0)
(-0.0339987 0.104369 0)
(-0.0394902 0.114037 0)
(-0.0457584 0.12676 0)
(-0.0532994 0.1402 0)
(-0.0628183 0.148025 0)
(-0.0744391 0.139591 0)
(-0.0865697 0.104578 0)
(-0.0978963 0.0403506 0)
(-0.110453 -0.0452176 0)
(-0.127698 -0.142317 0)
(-0.145981 -0.246688 0)
(-0.151109 -0.349997 0)
(-0.128615 -0.395301 0)
(-0.0478311 -0.227104 0)
(-0.00126125 0.0347524 0)
(-0.00556842 0.0717151 0)
(-0.0118257 0.0883426 0)
(-0.0173069 0.0948812 0)
(-0.0212964 0.0980808 0)
(-0.0238952 0.101745 0)
(-0.0252906 0.107881 0)
(-0.0255963 0.117458 0)
(-0.0248307 0.130294 0)
(-0.0230786 0.143938 0)
(-0.0211451 0.152294 0)
(-0.020212 0.145265 0)
(-0.020923 0.113173 0)
(-0.024537 0.0538402 0)
(-0.0347762 -0.0249361 0)
(-0.0550508 -0.114616 0)
(-0.0839442 -0.217415 0)
(-0.10622 -0.339512 0)
(-0.109083 -0.436376 0)
(-0.0419739 -0.323211 0)
(-0.0020295 0.0383615 0)
(-0.00744723 0.0778377 0)
(-0.0140441 0.0939189 0)
(-0.018568 0.0988026 0)
(-0.0204679 0.100217 0)
(-0.0200331 0.102201 0)
(-0.0173802 0.106696 0)
(-0.0123724 0.114522 0)
(-0.00475563 0.125348 0)
(0.00570438 0.137181 0)
(0.0181406 0.144654 0)
(0.0302856 0.139178 0)
(0.0394495 0.112015 0)
(0.0426698 0.0606638 0)
(0.0349437 -0.00835902 0)
(0.0137746 -0.0859649 0)
(-0.0214091 -0.180314 0)
(-0.0551497 -0.311592 0)
(-0.0825415 -0.452999 0)
(-0.0281093 -0.403334 0)
(-0.00371237 0.0440198 0)
(-0.0114805 0.0856058 0)
(-0.0189804 0.0994661 0)
(-0.0223893 0.10117 0)
(-0.021897 0.0997147 0)
(-0.0183011 0.0990726 0)
(-0.0117521 0.10084 0)
(-0.00203258 0.105552 0)
(0.0114576 0.112906 0)
(0.0289232 0.121359 0)
(0.049229 0.126775 0)
(0.069743 0.122654 0)
(0.0864093 0.101999 0)
(0.0946854 0.0619452 0)
(0.0905745 0.00664191 0)
(0.0714395 -0.0577507 0)
(0.0347131 -0.141516 0)
(-0.00345551 -0.275431 0)
(-0.0534653 -0.452589 0)
(-0.00994306 -0.467778 0)
(-0.00720211 0.0536641 0)
(-0.0193696 0.0951308 0)
(-0.0281444 0.103401 0)
(-0.0298792 0.100879 0)
(-0.0264098 0.0962039 0)
(-0.0194366 0.0925446 0)
(-0.00918606 0.0910024 0)
(0.00468582 0.0918696 0)
(0.0227062 0.0950449 0)
(0.0449473 0.0992467 0)
(0.0703082 0.101893 0)
(0.0962205 0.0986623 0)
(0.118383 0.0847596 0)
(0.131867 0.0572576 0)
(0.131983 0.0178165 0)
(0.117315 -0.0333728 0)
(0.0840429 -0.106778 0)
(0.0494463 -0.236886 0)
(-0.017963 -0.43462 0)
(0.0171225 -0.503744 0)
(-0.0142776 0.0657659 0)
(-0.0341855 0.112558 0)
(-0.0463537 0.112712 0)
(-0.0423009 0.100513 0)
(-0.0316 0.0901142 0)
(-0.0175852 0.0823128 0)
(-0.000740606 0.0769191 0)
(0.0190907 0.0737578 0)
(0.0421107 0.0726617 0)
(0.068372 0.072769 0)
(0.0969772 0.0727271 0)
(0.126384 0.0699586 0)
(0.152704 0.0618492 0)
(0.172752 0.0456237 0)
(0.179966 0.0209549 0)
(0.175602 -0.0157276 0)
(0.14918 -0.0752317 0)
(0.121613 -0.188097 0)
(0.0440193 -0.380922 0)
(0.0671996 -0.48624 0)
(-0.082742 0.140211 0)
(-0.0806214 0.117228 0)
(-0.0468153 0.0866942 0)
(-0.0104627 0.0724417 0)
(0.0252591 0.0626598 0)
(0.0588436 0.0547346 0)
(0.0909289 0.0485488 0)
(0.122356 0.0440817 0)
(0.153195 0.0412542 0)
(0.184782 0.0394416 0)
(0.215741 0.038294 0)
(0.247772 0.036373 0)
(0.275562 0.0329577 0)
(0.302047 0.0258261 0)
(0.31475 0.0142943 0)
(0.321664 -0.00589735 0)
(0.297202 -0.0427552 0)
(0.27338 -0.117074 0)
(0.176722 -0.263966 0)
(0.161682 -0.374607 0)
(0.181546 0.122423 0)
(0.218568 0.0990248 0)
(0.29993 0.0711755 0)
(0.369568 0.053922 0)
(0.422997 0.0427497 0)
(0.465963 0.0346459 0)
(0.501888 0.0285133 0)
(0.534057 0.023759 0)
(0.561964 0.0202581 0)
(0.589221 0.0175036 0)
(0.612376 0.0155571 0)
(0.637415 0.0137251 0)
(0.655126 0.0121865 0)
(0.67616 0.00988989 0)
(0.680312 0.00702757 0)
(0.687385 0.00155535 0)
(0.654532 -0.00782375 0)
(0.62046 -0.0281823 0)
(0.482295 -0.0681778 0)
(0.363893 -0.124896 0)
)
;

boundaryField
{
    movingWall
    {
        type            fixedValue;
        value           uniform ( 1 0 0 );
    }
    fixedWalls
    {
        type            noSlip;
    }
    frontAndBack
    {
        type            empty;
    }
}


// ************************************************************************* //
