/*--------------------------------*- C++ -*----------------------------------*\
  =========                 |
  \\      /  F ield         | OpenFOAM: The Open Source CFD Toolbox
   \\    /   O peration     | Website:  https://openfoam.org
    \\  /    A nd           | Version:  7
     \\/     M anipulation  |
\*---------------------------------------------------------------------------*/
FoamFile
{
    version     2.0;
    format      ascii;
    class       volScalarField;
    location    "0.3";
    object      p;
}
// * * * * * * * * * * * * * * * * * * * * * * * * * * * * * * * * * * * * * //

dimensions      [0 2 -2 0 0 0 0];

internalField   nonuniform List<scalar> 
400
(
-1.00222e-08
-0.000663049
-0.00128832
-0.00192972
-0.00261167
-0.00335393
-0.00414268
-0.00493178
-0.00563551
-0.00610005
-0.00604781
-0.00497656
-0.00201454
0.0041544
0.0149151
0.0304037
0.0475107
0.0597794
0.0619378
0.0547618
9.89432e-05
-0.000505279
-0.0010429
-0.00164284
-0.0022999
-0.00301203
-0.00375042
-0.00445665
-0.00503453
-0.00532764
-0.00507937
-0.0038579
-0.000932245
0.00483772
0.0147596
0.0291153
0.0452505
0.0571484
0.0598724
0.053558
0.000293599
-0.000326283
-0.000808621
-0.00137487
-0.00201212
-0.00270484
-0.00341305
-0.00407144
-0.00458429
-0.00481259
-0.0045521
-0.00347475
-0.000986393
0.00398342
0.0128977
0.02645
0.0423805
0.0548204
0.0583427
0.051947
0.000551517
-0.000153286
-0.000602635
-0.00114623
-0.00177319
-0.00246042
-0.00316122
-0.00381052
-0.00432693
-0.00461394
-0.00455759
-0.00397184
-0.0023973
0.00126064
0.00880052
0.0215213
0.0377369
0.0516624
0.0567219
0.0500995
0.00081544
-1.04054e-05
-0.000438936
-0.000970925
-0.00159821
-0.00229203
-0.00300251
-0.00367202
-0.0042483
-0.00470413
-0.0050555
-0.0052977
-0.00511268
-0.00332884
0.00228638
0.0137826
0.0303442
0.0465527
0.0542371
0.048309
0.00102361
6.00097e-05
-0.000355801
-0.000886975
-0.00152411
-0.0022329
-0.00296336
-0.00367282
-0.00435325
-0.00507281
-0.00601246
-0.00737937
-0.0090024
-0.00961205
-0.00651052
0.00320052
0.0198806
0.038921
0.0504203
0.0469304
0.00111058
3.97058e-06
-0.000402846
-0.000940553
-0.00159197
-0.00231634
-0.00306624
-0.00382122
-0.00463137
-0.00568163
-0.00734253
-0.0100494
-0.0137799
-0.0171695
-0.0170761
-0.00972599
0.00661672
0.0286226
0.0450071
0.0461612
0.0010063
-0.000239425
-0.000633259
-0.00117674
-0.00183692
-0.00256499
-0.00331832
-0.00410487
-0.00504356
-0.00644957
-0.0088925
-0.0130343
-0.0189959
-0.0253319
-0.0285119
-0.023951
-0.00853013
0.0160827
0.0380005
0.0458641
0.000634773
-0.000736118
-0.00110028
-0.00163552
-0.00228431
-0.00298799
-0.00371031
-0.00449225
-0.0055279
-0.007266
-0.0104676
-0.0159992
-0.0241075
-0.0332786
-0.0396731
-0.0380429
-0.0240878
0.00238764
0.0297808
0.0457128
-8.87215e-05
-0.00155576
-0.00185365
-0.00234788
-0.00294685
-0.00358003
-0.00421837
-0.00493858
-0.00601147
-0.00801249
-0.0118701
-0.0186141
-0.0285853
-0.0402062
-0.0494245
-0.0505166
-0.0383513
-0.0108808
0.0211902
0.0456931
-0.00126351
-0.0027705
-0.00293522
-0.0033314
-0.00382172
-0.00432115
-0.00480758
-0.00539387
-0.0064247
-0.00858689
-0.0129403
-0.0206212
-0.032026
-0.0455054
-0.0569024
-0.0601854
-0.0497838
-0.0219737
0.0136095
0.0465443
-0.00301471
-0.00445367
-0.00437318
-0.00458466
-0.00488726
-0.00517686
-0.00543605
-0.00581162
-0.00671548
-0.00892486
-0.0135892
-0.0218863
-0.0342325
-0.0488796
-0.0616799
-0.0663909
-0.0573284
-0.0293232
0.00881287
0.0499623
-0.00551361
-0.00667669
-0.00617324
-0.00607912
-0.00609755
-0.00609628
-0.00605701
-0.00615486
-0.00685899
-0.00901282
-0.0138144
-0.0224133
-0.0352392
-0.0503688
-0.063787
-0.0690396
-0.0605219
-0.0318116
0.00857766
0.0586565
-0.00901479
-0.00950022
-0.00830293
-0.00774532
-0.00737216
-0.00700526
-0.00661493
-0.00639462
-0.00685739
-0.00888651
-0.0136922
-0.0223224
-0.0352772
-0.0503088
-0.0635937
-0.0684308
-0.0593526
-0.0288716
0.014283
0.0762592
-0.0139304
-0.0129492
-0.0106632
-0.00944961
-0.0085778
-0.00779153
-0.00703257
-0.00649724
-0.00672536
-0.00861144
-0.0133521
-0.021909
-0.0345484
-0.0490743
-0.0616048
-0.0651208
-0.0541183
-0.0203009
0.0272163
0.10635
-0.0210019
-0.0169633
-0.0130534
-0.0109627
-0.00950368
-0.0082857
-0.00719345
-0.00640454
-0.00646415
-0.00824715
-0.0129155
-0.0212711
-0.0334401
-0.047084
-0.0583313
-0.0596623
-0.0453194
-0.00583637
0.0501716
0.1504
-0.0316436
-0.0213537
-0.0151588
-0.0119251
-0.00983876
-0.00825242
-0.00693674
-0.00602292
-0.00604402
-0.00782113
-0.0124572
-0.020566
-0.0321579
-0.044669
-0.0542272
-0.0526576
-0.0336418
0.0144395
0.0846142
0.211684
-0.0481565
-0.0254943
-0.0162311
-0.0116817
-0.0091006
-0.00736154
-0.00604696
-0.00521357
-0.00536844
-0.00726957
-0.0119434
-0.0198206
-0.0307959
-0.0420953
-0.0498299
-0.0450947
-0.0208037
0.0384342
0.129416
0.295962
-0.0726719
-0.025611
-0.0130642
-0.00867634
-0.00641321
-0.00506046
-0.00416531
-0.00371369
-0.00420015
-0.00635182
-0.011126
-0.0188342
-0.0292678
-0.0395555
-0.0458409
-0.0386524
-0.0102098
0.0602881
0.177789
0.402961
-0.109666
-0.0147082
-0.00130195
-0.00155986
-0.00131303
-0.00116928
-0.00121356
-0.00145759
-0.00243612
-0.0049131
-0.00981642
-0.0174516
-0.0275451
-0.0372847
-0.0428495
-0.0349708
-0.00511049
0.0720738
0.212763
0.506708
)
;

boundaryField
{
    movingWall
    {
        type            zeroGradient;
    }
    fixedWalls
    {
        type            zeroGradient;
    }
    frontAndBack
    {
        type            empty;
    }
}


// ************************************************************************* //
