/*--------------------------------*- C++ -*----------------------------------*\
  =========                 |
  \\      /  F ield         | OpenFOAM: The Open Source CFD Toolbox
   \\    /   O peration     | Website:  https://openfoam.org
    \\  /    A nd           | Version:  7
     \\/     M anipulation  |
\*---------------------------------------------------------------------------*/
FoamFile
{
    version     2.0;
    format      ascii;
    class       surfaceScalarField;
    location    "0.3";
    object      phi;
}
// * * * * * * * * * * * * * * * * * * * * * * * * * * * * * * * * * * * * * //

dimensions      [0 3 -1 0 0 0 0];

internalField   nonuniform List<scalar> 
760
(
1.29973e-08
-1.29968e-08
-1.11596e-08
2.41568e-08
-5.11724e-08
4.00126e-08
-9.64761e-08
4.53037e-08
-1.4482e-07
4.83443e-08
-1.98498e-07
5.36774e-08
-2.62196e-07
6.36984e-08
-3.42944e-07
8.07475e-08
-4.50734e-07
1.0779e-07
-5.98585e-07
1.47851e-07
-8.00961e-07
2.02377e-07
-1.06801e-06
2.67052e-07
-1.39096e-06
3.2295e-07
-1.71608e-06
3.25121e-07
-1.92128e-06
2.05197e-07
-1.83437e-06
-8.69151e-08
-1.34581e-06
-4.88552e-07
-5.80259e-07
-7.65555e-07
2.06592e-09
-5.82325e-07
2.0656e-09
-5.32614e-09
-7.67055e-09
-8.51552e-08
1.03986e-07
-2.06386e-07
1.61243e-07
-3.4408e-07
1.82997e-07
-4.91639e-07
1.95903e-07
-6.53773e-07
2.15812e-07
-8.42057e-07
2.51982e-07
-1.07432e-06
3.13009e-07
-1.37482e-06
4.08293e-07
-1.77195e-06
5.44976e-07
-2.28984e-06
7.20273e-07
-2.92892e-06
9.0613e-07
-3.6318e-06
1.02583e-06
-4.24542e-06
9.38741e-07
-4.51639e-06
4.76159e-07
-4.17097e-06
-4.32327e-07
-3.08444e-06
-1.57508e-06
-1.51198e-06
-2.33801e-06
-2.26645e-07
-1.86766e-06
-2.2458e-07
-4.15373e-08
3.38665e-08
-1.90937e-07
2.53386e-07
-3.9661e-07
3.66916e-07
-6.25781e-07
4.12169e-07
-8.69259e-07
4.39381e-07
-1.1334e-06
4.79952e-07
-1.43474e-06
5.53324e-07
-1.79876e-06
6.77025e-07
-2.25849e-06
8.6803e-07
-2.84837e-06
1.13485e-06
-3.58835e-06
1.46026e-06
-4.45467e-06
1.77245e-06
-5.34115e-06
1.91231e-06
-6.03489e-06
1.63249e-06
-6.245e-06
6.86265e-07
-5.70319e-06
-9.74141e-07
-4.31002e-06
-2.96825e-06
-2.31546e-06
-4.33257e-06
-5.29596e-07
-3.65353e-06
-7.54176e-07
-8.87738e-08
1.2264e-07
-3.14907e-07
4.79518e-07
-6.06188e-07
6.58197e-07
-9.22784e-07
7.28765e-07
-1.25398e-06
7.70573e-07
-1.60736e-06
8.33334e-07
-2.00267e-06
9.48636e-07
-2.46981e-06
1.14417e-06
-3.04546e-06
1.44368e-06
-3.76291e-06
1.8523e-06
-4.63105e-06
2.32839e-06
-5.60246e-06
2.74386e-06
-6.54224e-06
2.8521e-06
-7.2244e-06
2.31465e-06
-7.37901e-06
8.40879e-07
-6.7752e-06
-1.57796e-06
-5.30505e-06
-4.4384e-06
-3.11387e-06
-6.52375e-06
-9.0241e-07
-5.86499e-06
-1.65659e-06
-1.40954e-07
2.63594e-07
-4.47664e-07
7.86228e-07
-8.2266e-07
1.03319e-06
-1.21933e-06
1.12543e-06
-1.62599e-06
1.17724e-06
-2.05096e-06
1.2583e-06
-2.51538e-06
1.41306e-06
-3.05051e-06
1.67929e-06
-3.69241e-06
2.08558e-06
-4.46919e-06
2.62908e-06
-5.37848e-06
3.23768e-06
-6.35934e-06
3.72472e-06
-7.27358e-06
3.76634e-06
-7.91765e-06
2.95872e-06
-8.06875e-06
9.91978e-07
-7.53139e-06
-2.11532e-06
-6.15963e-06
-5.81016e-06
-3.94356e-06
-8.73982e-06
-1.36958e-06
-8.43897e-06
-3.02616e-06
-1.95297e-07
4.58892e-07
-5.82918e-07
1.17385e-06
-1.03666e-06
1.48694e-06
-1.50307e-06
1.59184e-06
-1.96976e-06
1.64392e-06
-2.4451e-06
1.73364e-06
-2.9499e-06
1.91786e-06
-3.51404e-06
2.24343e-06
-4.17011e-06
2.74165e-06
-4.93994e-06
3.39891e-06
-5.81411e-06
4.11185e-06
-6.73104e-06
4.64165e-06
-7.56979e-06
4.60509e-06
-8.1684e-06
3.55733e-06
-8.35678e-06
1.18035e-06
-7.96791e-06
-2.50418e-06
-6.81628e-06
-6.9618e-06
-4.73202e-06
-1.08241e-05
-1.91704e-06
-1.12539e-05
-4.94321e-06
-2.50523e-07
7.09415e-07
-7.16848e-07
1.64017e-06
-1.24174e-06
2.01183e-06
-1.76508e-06
2.11518e-06
-2.27402e-06
2.15286e-06
-2.77637e-06
2.23599e-06
-3.29101e-06
2.43251e-06
-3.84432e-06
2.79674e-06
-4.46378e-06
3.36111e-06
-5.16581e-06
4.10094e-06
-5.93948e-06
4.88551e-06
-6.73325e-06
5.43542e-06
-7.4556e-06
5.32744e-06
-7.99238e-06
4.09411e-06
-8.22447e-06
1.41244e-06
-8.01449e-06
-2.71416e-06
-7.15746e-06
-7.81883e-06
-5.34741e-06
-1.26341e-05
-2.48027e-06
-1.41211e-05
-7.42348e-06
-3.06526e-07
1.01594e-06
-8.47746e-07
2.18139e-06
-1.43401e-06
2.5981e-06
-1.9995e-06
2.68067e-06
-2.53142e-06
2.68478e-06
-3.0366e-06
2.74117e-06
-3.53081e-06
2.92671e-06
-4.03537e-06
3.3013e-06
-4.57192e-06
3.89766e-06
-5.153e-06
4.68202e-06
-5.77091e-06
5.50342e-06
-6.39096e-06
6.05548e-06
-6.95619e-06
5.89267e-06
-7.40029e-06
4.53822e-06
-7.65397e-06
1.66612e-06
-7.61698e-06
-2.75114e-06
-7.09012e-06
-8.34569e-06
-5.6678e-06
-1.40565e-05
-2.96353e-06
-1.68253e-05
-1.0387e-05
-3.64323e-07
1.38026e-06
-9.7576e-07
2.79283e-06
-1.61172e-06
3.23406e-06
-2.20279e-06
3.27174e-06
-2.73743e-06
3.21942e-06
-3.22157e-06
3.22531e-06
-3.66716e-06
3.3723e-06
-4.08954e-06
3.72368e-06
-4.50416e-06
4.31229e-06
-4.92101e-06
5.09886e-06
-5.33872e-06
5.92114e-06
-5.74286e-06
6.45961e-06
-6.11233e-06
6.26214e-06
-6.42712e-06
4.853e-06
-6.66814e-06
1.90714e-06
-6.7791e-06
-2.64019e-06
-6.58689e-06
-8.5379e-06
-5.62674e-06
-1.50166e-05
-3.27606e-06
-1.9176e-05
-1.36631e-05
-4.2618e-07
1.80644e-06
-1.10269e-06
3.46934e-06
-1.77453e-06
3.9059e-06
-2.37256e-06
3.86977e-06
-2.88871e-06
3.73557e-06
-3.32883e-06
3.66543e-06
-3.70107e-06
3.74453e-06
-4.0144e-06
4.03702e-06
-4.27797e-06
4.57585e-06
-4.49973e-06
5.32063e-06
-4.68611e-06
6.10751e-06
-4.84387e-06
6.61738e-06
-4.98761e-06
6.40589e-06
-5.1415e-06
5.0069e-06
-5.33643e-06
2.10207e-06
-5.56158e-06
-2.41503e-06
-5.68374e-06
-8.41574e-06
-5.22017e-06
-1.54802e-05
-3.35726e-06
-2.10389e-05
-1.70203e-05
-4.9595e-07
2.30239e-06
-1.23175e-06
4.20514e-06
-1.92247e-06
4.59661e-06
-2.50573e-06
4.45304e-06
-2.98048e-06
4.21032e-06
-3.35426e-06
4.03921e-06
-3.63233e-06
4.02261e-06
-3.81765e-06
4.22234e-06
-3.91295e-06
4.67115e-06
-3.92391e-06
5.33159e-06
-3.8643e-06
6.0479e-06
-3.76114e-06
6.51422e-06
-3.66347e-06
6.30822e-06
-3.63624e-06
4.97967e-06
-3.75767e-06
2.2235e-06
-4.05845e-06
-2.11426e-06
-4.45439e-06
-8.0198e-06
-4.48751e-06
-1.54471e-05
-3.20052e-06
-2.23259e-05
-2.02209e-05
-5.79668e-07
2.88206e-06
-1.36725e-06
4.99272e-06
-2.05432e-06
5.28368e-06
-2.59561e-06
4.99433e-06
-3.00231e-06
4.61702e-06
-3.28655e-06
4.32345e-06
-3.45265e-06
4.18872e-06
-3.49872e-06
4.2684e-06
-3.42126e-06
4.59369e-06
-3.22251e-06
5.13284e-06
-2.92141e-06
5.7468e-06
-2.56163e-06
6.15444e-06
-2.22387e-06
5.97046e-06
-2.00802e-06
4.76381e-06
-2.03431e-06
2.2498e-06
-2.36823e-06
-1.78033e-06
-2.98039e-06
-7.40764e-06
-3.4839e-06
-1.49435e-05
-2.83178e-06
-2.29781e-05
-2.30526e-05
-6.86515e-07
3.56858e-06
-1.51364e-06
5.81985e-06
-2.16447e-06
5.93451e-06
-2.6268e-06
5.45665e-06
-2.93126e-06
4.92148e-06
-3.09849e-06
4.49068e-06
-3.13486e-06
4.22509e-06
-3.03568e-06
4.16922e-06
-2.79194e-06
4.34995e-06
-2.40085e-06
4.74176e-06
-1.88252e-06
5.22846e-06
-1.29013e-06
5.56204e-06
-7.31675e-07
5.41201e-06
-3.35678e-07
4.36781e-06
-2.50409e-07
2.16453e-06
-5.70232e-07
-1.46051e-06
-1.32373e-06
-6.65414e-06
-2.25123e-06
-1.4016e-05
-2.28001e-06
-2.29493e-05
-2.53327e-05
-8.30256e-07
4.39883e-06
-1.67299e-06
6.66259e-06
-2.23616e-06
6.49768e-06
-2.56505e-06
5.78555e-06
-2.71918e-06
5.0756e-06
-2.73227e-06
4.50378e-06
-2.61617e-06
4.10899e-06
-2.36594e-06
3.91899e-06
-1.96837e-06
3.95238e-06
-1.41416e-06
4.18755e-06
-7.19777e-07
4.53408e-06
5.49428e-08
4.78732e-06
8.08115e-07
4.65884e-06
1.37927e-06
3.79666e-06
1.59183e-06
1.95197e-06
1.32049e-06
-1.18917e-06
4.95406e-07
-5.82905e-06
-7.96715e-07
-1.27239e-05
-1.54461e-06
-2.22014e-05
-2.68773e-05
-1.03097e-06
5.42981e-06
-1.83661e-06
7.46823e-06
-2.22461e-06
6.88567e-06
-2.33524e-06
5.89618e-06
-2.26829e-06
5.00865e-06
-2.07433e-06
4.30982e-06
-1.77274e-06
3.8074e-06
-1.36008e-06
3.50633e-06
-8.19992e-07
3.41229e-06
-1.35599e-07
3.50315e-06
6.85221e-07
3.71326e-06
1.59823e-06
3.87431e-06
2.48516e-06
3.77192e-06
3.19618e-06
3.08563e-06
3.53394e-06
1.61421e-06
3.33943e-06
-9.94669e-07
2.4775e-06
-4.96712e-06
8.9114e-07
-1.11376e-05
-4.53702e-07
-2.08565e-05
-2.7331e-05
-1.3113e-06
6.7411e-06
-1.95683e-06
8.11376e-06
-2.01213e-06
6.94097e-06
-1.7708e-06
5.65484e-06
-1.38242e-06
4.62027e-06
-9.11818e-07
3.83921e-06
-3.8243e-07
3.27801e-06
2.09898e-07
2.914e-06
8.84946e-07
2.73724e-06
1.66787e-06
2.72023e-06
2.56432e-06
2.81681e-06
3.54413e-06
2.89449e-06
4.50827e-06
2.80778e-06
5.30983e-06
2.28407e-06
5.74927e-06
1.17478e-06
5.62296e-06
-8.68363e-07
4.74389e-06
-4.08805e-06
2.88371e-06
-9.27738e-06
7.12859e-07
-1.86857e-05
-2.66181e-05
-1.658e-06
8.39911e-06
-1.84827e-06
8.30403e-06
-1.28721e-06
6.37991e-06
-5.02453e-07
4.87009e-06
3.23192e-07
3.79463e-06
1.13537e-06
3.02703e-06
1.92261e-06
2.49077e-06
2.69911e-06
2.13751e-06
3.49435e-06
1.942e-06
4.34215e-06
1.87242e-06
5.26262e-06
1.89635e-06
6.2419e-06
1.91521e-06
7.20929e-06
1.84039e-06
8.02767e-06
1.46569e-06
8.50955e-06
6.92897e-07
8.40215e-06
-7.60963e-07
7.45728e-06
-3.14317e-06
5.26687e-06
-7.08697e-06
2.07068e-06
-1.54895e-05
-2.45474e-05
-1.81152e-06
1.02106e-05
-8.58144e-07
7.35065e-06
7.47396e-07
4.77437e-06
2.24393e-06
3.37355e-06
3.55083e-06
2.48773e-06
4.68978e-06
1.88808e-06
5.69119e-06
1.48936e-06
6.59523e-06
1.23347e-06
7.44882e-06
1.08841e-06
8.29588e-06
1.02535e-06
9.17038e-06
1.02185e-06
1.00692e-05
1.01636e-06
1.09507e-05
9.58899e-07
1.16881e-05
7.28331e-07
1.21162e-05
2.64737e-07
1.19504e-05
-5.95106e-07
1.08713e-05
-2.06406e-06
8.33047e-06
-4.54618e-06
4.02785e-06
-1.11869e-05
-2.05196e-05
-5.73088e-08
1.02679e-05
3.10832e-06
4.18503e-06
5.82742e-06
2.05527e-06
7.8326e-06
1.36837e-06
9.37376e-06
9.46572e-07
1.05934e-05
6.68431e-07
1.15845e-05
4.98303e-07
1.24208e-05
3.97147e-07
1.31662e-05
3.43047e-07
1.38703e-05
3.21199e-07
1.45724e-05
3.19785e-07
1.52729e-05
3.15881e-07
1.59457e-05
2.86013e-07
1.6482e-05
1.9205e-07
1.67394e-05
7.37921e-09
1.64632e-05
-3.18884e-07
1.52842e-05
-8.85105e-07
1.26107e-05
-1.87271e-06
7.06458e-06
-5.64072e-06
-1.3455e-05
1.02679e-05
1.4453e-05
1.65082e-05
1.78766e-05
1.88232e-05
1.94916e-05
1.99899e-05
2.03871e-05
2.07301e-05
2.10513e-05
2.13711e-05
2.1687e-05
2.1973e-05
2.2165e-05
2.21724e-05
2.18535e-05
2.09684e-05
1.90957e-05
1.3455e-05
)
;

boundaryField
{
    movingWall
    {
        type            calculated;
        value           uniform 0;
    }
    fixedWalls
    {
        type            calculated;
        value           uniform 0;
    }
    frontAndBack
    {
        type            empty;
        value           nonuniform 0();
    }
}


// ************************************************************************* //
