/*--------------------------------*- C++ -*----------------------------------*\
  =========                 |
  \\      /  F ield         | OpenFOAM: The Open Source CFD Toolbox
   \\    /   O peration     | Website:  https://openfoam.org
    \\  /    A nd           | Version:  7
     \\/     M anipulation  |
\*---------------------------------------------------------------------------*/
FoamFile
{
    version     2.0;
    format      ascii;
    class       volVectorField;
    location    "0.3";
    object      U;
}
// * * * * * * * * * * * * * * * * * * * * * * * * * * * * * * * * * * * * * //

dimensions      [0 1 -1 0 0 0 0];

internalField   nonuniform List<vector> 
400
(
(0.000460865 -0.000185903 0)
(0.000299496 0.000118213 0)
(-0.00116324 0.000232135 0)
(-0.00291758 0.00026211 0)
(-0.00479068 0.000278111 0)
(-0.00680329 0.000313372 0)
(-0.00910204 0.000383069 0)
(-0.0119201 0.00050313 0)
(-0.0155978 0.000697909 0)
(-0.020608 0.000999377 0)
(-0.0275415 0.00144108 0)
(-0.0369866 0.00203103 0)
(-0.0491329 0.00266981 0)
(-0.0628626 0.0030042 0)
(-0.0745042 0.00236445 0)
(-0.0775976 0.00014521 0)
(-0.0658299 -0.00337089 0)
(-0.0390978 -0.00598644 0)
(-0.00768646 -0.00448611 0)
(0.00364368 0.000633816 0)
(0.000422759 -0.000344769 0)
(-0.0011128 0.000984738 0)
(-0.00560349 0.00162447 0)
(-0.0109116 0.00185286 0)
(-0.0166177 0.00198643 0)
(-0.0227364 0.00220403 0)
(-0.0296104 0.00260424 0)
(-0.0378272 0.00328194 0)
(-0.0482361 0.00435293 0)
(-0.0619409 0.00592995 0)
(-0.0801315 0.00805122 0)
(-0.103583 0.0105069 0)
(-0.131544 0.0125052 0)
(-0.159936 0.0123168 0)
(-0.179913 0.0075204 0)
(-0.179503 -0.00330327 0)
(-0.149859 -0.0177943 0)
(-0.0933001 -0.0277064 0)
(-0.0276829 -0.0215358 0)
(0.00246979 -0.000918123 0)
(-9.923e-05 7.57627e-05 0)
(-0.00367932 0.00321464 0)
(-0.0114289 0.00485154 0)
(-0.0203102 0.00549833 0)
(-0.0297653 0.0058875 0)
(-0.0398066 0.00647071 0)
(-0.0509152 0.00752078 0)
(-0.0639369 0.00928896 0)
(-0.0800696 0.0120394 0)
(-0.100765 0.0159518 0)
(-0.127349 0.0208861 0)
(-0.160149 0.0259376 0)
(-0.196985 0.028834 0)
(-0.231349 0.0256965 0)
(-0.251953 0.0122523 0)
(-0.246036 -0.0128189 0)
(-0.205988 -0.0435721 0)
(-0.134849 -0.0641944 0)
(-0.0495903 -0.0522607 0)
(-0.00172899 -0.00828291 0)
(-0.00084764 0.00135217 0)
(-0.00686827 0.00695714 0)
(-0.0180617 0.00984626 0)
(-0.0304422 0.0110095 0)
(-0.0433991 0.0117103 0)
(-0.056955 0.0127471 0)
(-0.0716834 0.0146234 0)
(-0.088593 0.0177889 0)
(-0.109068 0.0226598 0)
(-0.134661 0.029399 0)
(-0.166517 0.0374608 0)
(-0.204299 0.0448807 0)
(-0.244669 0.0475814 0)
(-0.279987 0.0396069 0)
(-0.298917 0.0154749 0)
(-0.290215 -0.0253491 0)
(-0.247619 -0.0737261 0)
(-0.171992 -0.107463 0)
(-0.0750148 -0.0927446 0)
(-0.0079442 -0.022262 0)
(-0.00170267 0.00363656 0)
(-0.0103707 0.0122876 0)
(-0.025068 0.0165394 0)
(-0.0407519 0.0181983 0)
(-0.0568173 0.019168 0)
(-0.0733005 0.0206359 0)
(-0.0908207 0.0233615 0)
(-0.110452 0.0280028 0)
(-0.133616 0.0350942 0)
(-0.161778 0.0446769 0)
(-0.195773 0.0556257 0)
(-0.234731 0.0647709 0)
(-0.274831 0.066326 0)
(-0.308636 0.0527537 0)
(-0.326279 0.0180067 0)
(-0.318678 -0.0376634 0)
(-0.27991 -0.103277 0)
(-0.206919 -0.152608 0)
(-0.104832 -0.14115 0)
(-0.0168054 -0.0444721 0)
(-0.00261092 0.0069958 0)
(-0.0140054 0.0192426 0)
(-0.0321341 0.0248628 0)
(-0.0508073 0.0268881 0)
(-0.0694655 0.0279827 0)
(-0.0881537 0.0297458 0)
(-0.107488 0.0331946 0)
(-0.128516 0.0391816 0)
(-0.152569 0.0483145 0)
(-0.180925 0.0604319 0)
(-0.214133 0.0737609 0)
(-0.251106 0.0839863 0)
(-0.288245 0.0839345 0)
(-0.319246 0.0650245 0)
(-0.336357 0.0209883 0)
(-0.332524 -0.0476027 0)
(-0.301573 -0.129446 0)
(-0.236538 -0.196708 0)
(-0.136594 -0.195988 0)
(-0.0287317 -0.0768489 0)
(-0.00355551 0.0114545 0)
(-0.0176771 0.0278022 0)
(-0.0390539 0.034694 0)
(-0.0602993 0.0368523 0)
(-0.0809393 0.0378261 0)
(-0.10102 0.0396335 0)
(-0.121108 0.043531 0)
(-0.142144 0.0505383 0)
(-0.165282 0.0612961 0)
(-0.191571 0.0754101 0)
(-0.221389 0.0904982 0)
(-0.253759 0.101299 0)
(-0.285818 0.0996438 0)
(-0.31285 0.0763369 0)
(-0.329322 0.0249954 0)
(-0.330016 -0.0540137 0)
(-0.308753 -0.150301 0)
(-0.255644 -0.236815 0)
(-0.16516 -0.254134 0)
(-0.0428744 -0.120705 0)
(-0.00454721 0.0170244 0)
(-0.0213609 0.0379026 0)
(-0.045717 0.0458579 0)
(-0.0690299 0.0478137 0)
(-0.0909681 0.0483256 0)
(-0.111579 0.0498194 0)
(-0.131347 0.053756 0)
(-0.15104 0.061286 0)
(-0.171578 0.0730599 0)
(-0.193784 0.0884708 0)
(-0.217982 0.104648 0)
(-0.243561 0.115647 0)
(-0.268671 0.112687 0)
(-0.290317 0.0862621 0)
(-0.305094 0.0299005 0)
(-0.309656 -0.0565848 0)
(-0.298555 -0.164578 0)
(-0.260004 -0.270107 0)
(-0.185164 -0.311234 0)
(-0.0565753 -0.175788 0)
(-0.00562423 0.0237271 0)
(-0.0250961 0.049456 0)
(-0.0520942 0.0581389 0)
(-0.0768877 0.0594581 0)
(-0.099381 0.0590839 0)
(-0.119643 0.0598191 0)
(-0.138058 0.0632776 0)
(-0.155185 0.0707011 0)
(-0.171672 0.0827416 0)
(-0.188131 0.098641 0)
(-0.204921 0.115208 0)
(-0.221939 0.126102 0)
(-0.238471 0.122259 0)
(-0.253224 0.094101 0)
(-0.26483 0.0351133 0)
(-0.271957 -0.0556148 0)
(-0.270633 -0.171772 0)
(-0.247861 -0.294484 0)
(-0.193275 -0.363003 0)
(-0.0661275 -0.239647 0)
(-0.00685837 0.0316169 0)
(-0.0289867 0.0623634 0)
(-0.0582206 0.0712842 0)
(-0.0838107 0.0714361 0)
(-0.106049 0.0696877 0)
(-0.125073 0.069163 0)
(-0.141184 0.0715626 0)
(-0.154718 0.0781727 0)
(-0.166038 0.0896486 0)
(-0.175546 0.105166 0)
(-0.183678 0.121407 0)
(-0.190889 0.13191 0)
(-0.197627 0.127633 0)
(-0.204239 0.0991111 0)
(-0.211319 0.039887 0)
(-0.219566 -0.0517619 0)
(-0.227023 -0.172069 0)
(-0.219871 -0.308807 0)
(-0.188871 -0.406086 0)
(-0.0687584 -0.307848 0)
(-0.00836765 0.0408091 0)
(-0.033209 0.0765177 0)
(-0.064171 0.0849917 0)
(-0.0897291 0.0833509 0)
(-0.110794 0.0797014 0)
(-0.127664 0.0774016 0)
(-0.140602 0.0781555 0)
(-0.149749 0.0832381 0)
(-0.155187 0.0933078 0)
(-0.157098 0.107564 0)
(-0.155974 0.122762 0)
(-0.152797 0.132585 0)
(-0.149135 0.128298 0)
(-0.146872 0.100698 0)
(-0.148476 0.0435189 0)
(-0.156428 -0.0458702 0)
(-0.171158 -0.166204 0)
(-0.17819 -0.312793 0)
(-0.173172 -0.438136 0)
(-0.0637679 -0.375248 0)
(-0.0103374 0.0515175 0)
(-0.0380238 0.0917926 0)
(-0.0700211 0.0988788 0)
(-0.0944738 0.0947257 0)
(-0.113254 0.0886407 0)
(-0.126949 0.0840886 0)
(-0.135878 0.0826764 0)
(-0.140051 0.0855973 0)
(-0.139304 0.0934978 0)
(-0.133576 0.105675 0)
(-0.123345 0.119145 0)
(-0.109978 0.127984 0)
(-0.0960449 0.124057 0)
(-0.0847786 0.0985151 0)
(-0.0803952 0.0454167 0)
(-0.0866571 -0.0389011 0)
(-0.10673 -0.155348 0)
(-0.125367 -0.306826 0)
(-0.14806 -0.4576 0)
(-0.0518664 -0.437259 0)
(-0.013052 0.0641089 0)
(-0.0437934 0.108005 0)
(-0.0757684 0.112417 0)
(-0.0976101 0.104941 0)
(-0.112635 0.0959171 0)
(-0.121886 0.0887347 0)
(-0.125877 0.0847843 0)
(-0.124589 0.0850896 0)
(-0.117675 0.0902458 0)
(-0.104821 0.0996834 0)
(-0.0863789 0.11083 0)
(-0.063841 0.118366 0)
(-0.0405522 0.11507 0)
(-0.0207435 0.0924988 0)
(-0.0102449 0.0450925 0)
(-0.0133928 -0.0319002 0)
(-0.0366226 -0.141019 0)
(-0.0633915 -0.291825 0)
(-0.115115 -0.463641 0)
(-0.0338056 -0.489784 0)
(-0.0169394 0.0791916 0)
(-0.0509864 0.124824 0)
(-0.0811408 0.124813 0)
(-0.0980907 0.113123 0)
(-0.107249 0.10074 0)
(-0.110314 0.0907197 0)
(-0.108141 0.0840969 0)
(-0.1008 0.0816199 0)
(-0.0878556 0.0837635 0)
(-0.0687422 0.090073 0)
(-0.0435824 0.0984835 0)
(-0.0136229 0.104459 0)
(0.017344 0.101775 0)
(0.0446658 0.0827632 0)
(0.0609724 0.0422126 0)
(0.0623025 -0.0257282 0)
(0.0379892 -0.12474 0)
(0.00696803 -0.269146 0)
(-0.0748305 -0.456293 0)
(-0.00936211 -0.528422 0)
(-0.0226169 0.0977637 0)
(-0.0601057 0.141587 0)
(-0.0850669 0.134793 0)
(-0.0934455 0.117955 0)
(-0.0935686 0.101967 0)
(-0.0879467 0.0891736 0)
(-0.0778722 0.0800813 0)
(-0.0635761 0.0750429 0)
(-0.0446038 0.074322 0)
(-0.0201382 0.0775054 0)
(0.00998776 0.0830513 0)
(0.045091 0.0872476 0)
(0.0813614 0.0850538 0)
(0.11469 0.0697025 0)
(0.135877 0.0366122 0)
(0.142614 -0.0210382 0)
(0.118338 -0.107668 0)
(0.0863085 -0.240222 0)
(-0.0258378 -0.435931 0)
(0.023421 -0.548761 0)
(-0.0308588 0.121334 0)
(-0.0712102 0.156859 0)
(-0.0840767 0.140165 0)
(-0.077777 0.117356 0)
(-0.0641827 0.0979144 0)
(-0.0465074 0.0828656 0)
(-0.0263263 0.0719703 0)
(-0.00389798 0.065064 0)
(0.0212814 0.0621159 0)
(0.0503492 0.0626506 0)
(0.083702 0.0655804 0)
(0.121622 0.0679336 0)
(0.160343 0.0661301 0)
(0.197552 0.0542067 0)
(0.221684 0.0286241 0)
(0.233822 -0.0178761 0)
(0.20888 -0.0899966 0)
(0.176853 -0.205174 0)
(0.0353763 -0.400597 0)
(0.0686158 -0.548885 0)
(-0.0420364 0.151402 0)
(-0.0813173 0.166761 0)
(-0.0673803 0.136364 0)
(-0.0369321 0.107866 0)
(-0.00374552 0.0861808 0)
(0.0294204 0.0702127 0)
(0.0614858 0.05883 0)
(0.0926886 0.0512894 0)
(0.123818 0.0472297 0)
(0.156535 0.0460616 0)
(0.191324 0.0470366 0)
(0.229779 0.0478732 0)
(0.267811 0.04632 0)
(0.30615 0.0375456 0)
(0.330003 0.0191511 0)
(0.345911 -0.0154699 0)
(0.317514 -0.0710079 0)
(0.284129 -0.162822 0)
(0.113236 -0.345128 0)
(0.13041 -0.523612 0)
(-0.0526879 0.187443 0)
(-0.0710115 0.159885 0)
(-0.00341687 0.114158 0)
(0.0612423 0.0846486 0)
(0.117428 0.0643116 0)
(0.166315 0.0500529 0)
(0.208888 0.0402737 0)
(0.246755 0.0338289 0)
(0.281399 0.0301088 0)
(0.31526 0.0284895 0)
(0.348761 0.0284574 0)
(0.384872 0.028439 0)
(0.418725 0.0271627 0)
(0.454525 0.0213596 0)
(0.473902 0.009559 0)
(0.489985 -0.0127196 0)
(0.454514 -0.0498875 0)
(0.417467 -0.112223 0)
(0.218293 -0.264468 0)
(0.218026 -0.457888 0)
(-0.0278404 0.226972 0)
(0.0471852 0.124161 0)
(0.183636 0.0705893 0)
(0.278091 0.0483147 0)
(0.347603 0.034511 0)
(0.401948 0.0252056 0)
(0.445493 0.0191911 0)
(0.481604 0.0154236 0)
(0.512575 0.0132899 0)
(0.541423 0.0123118 0)
(0.568463 0.0121509 0)
(0.597248 0.0119901 0)
(0.622548 0.011147 0)
(0.650316 0.00811098 0)
(0.661191 0.00182239 0)
(0.672041 -0.00892613 0)
(0.629499 -0.0281477 0)
(0.589433 -0.0586747 0)
(0.376703 -0.159371 0)
(0.354827 -0.329312 0)
(0.403251 0.134857 0)
(0.500824 0.066797 0)
(0.620196 0.0311935 0)
(0.692916 0.017508 0)
(0.737535 0.010772 0)
(0.768359 0.00689574 0)
(0.790965 0.00467588 0)
(0.808499 0.00343315 0)
(0.822861 0.00279287 0)
(0.836039 0.00253049 0)
(0.848242 0.00249101 0)
(0.861335 0.00245672 0)
(0.872172 0.00217218 0)
(0.883662 0.00134883 0)
(0.88459 -0.000578493 0)
(0.884583 -0.00326418 0)
(0.850146 -0.00862645 0)
(0.818652 -0.0160499 0)
(0.662477 -0.0458075 0)
(0.607974 -0.118333 0)
)
;

boundaryField
{
    movingWall
    {
        type            fixedValue;
        value           uniform (1 0 0);
    }
    fixedWalls
    {
        type            noSlip;
    }
    frontAndBack
    {
        type            empty;
    }
}


// ************************************************************************* //
