/*--------------------------------*- C++ -*----------------------------------*\
  =========                 |
  \\      /  F ield         | OpenFOAM: The Open Source CFD Toolbox
   \\    /   O peration     | Website:  https://openfoam.org
    \\  /    A nd           | Version:  7
     \\/     M anipulation  |
\*---------------------------------------------------------------------------*/
FoamFile
{
    version     2.0;
    format      ascii;
    class       volScalarField;
    location    "0.1";
    object      p;
}
// * * * * * * * * * * * * * * * * * * * * * * * * * * * * * * * * * * * * * //

dimensions      [0 2 -2 0 0 0 0];

internalField   nonuniform List<scalar> 
400
(
1.11523e-07
3.27607e-05
3.36082e-05
-8.08098e-06
-8.75765e-05
-0.000199633
-0.000337993
-0.00049594
-0.000667082
-0.000845744
-0.00102686
-0.00120557
-0.00137675
-0.00153455
-0.0016724
-0.00178327
-0.00186056
-0.00189846
-0.0018934
-0.00185739
-4.63925e-05
-1.1121e-06
-7.23944e-07
-4.66725e-05
-0.000127754
-0.000237356
-0.000370227
-0.00052091
-0.000683984
-0.000854309
-0.00102701
-0.00119729
-0.00136021
-0.00151056
-0.00164277
-0.00175121
-0.00183047
-0.00187393
-0.00187069
-0.00182277
0.000133099
0.000172407
0.00015747
8.97942e-05
-1.53869e-05
-0.000149109
-0.000305028
-0.000477347
-0.000660789
-0.000850675
-0.00104274
-0.00123284
-0.00141662
-0.00158922
-0.00174513
-0.0018783
-0.00198222
-0.00204785
-0.00205997
-0.0020176
0.000569807
0.000562073
0.000494017
0.000372234
0.000213512
2.89034e-05
-0.000173908
-0.00038897
-0.000611743
-0.000838851
-0.00106764
-0.00129561
-0.0015199
-0.00173671
-0.00194097
-0.00212616
-0.00228417
-0.00240357
-0.0024672
-0.00246928
0.00131644
0.00120225
0.00102678
0.000805943
0.000555354
0.000287993
1.29185e-05
-0.000264542
-0.000541992
-0.000819105
-0.00109675
-0.00137604
-0.00165741
-0.00193969
-0.00221936
-0.00248991
-0.00274126
-0.00295947
-0.00312751
-0.0032308
0.00244285
0.00212572
0.00175886
0.00137446
0.000981887
0.000594851
0.000223161
-0.000130322
-0.000468094
-0.00079614
-0.00112237
-0.00145508
-0.00180139
-0.00216576
-0.00254862
-0.00294482
-0.00334238
-0.00372517
-0.00408041
-0.004377
0.0040154
0.00333692
0.0026487
0.00200959
0.00141178
0.000866298
0.000381677
-4.54317e-05
-0.00042744
-0.000782301
-0.00113095
-0.00149493
-0.00189393
-0.00234345
-0.00285241
-0.00342004
-0.00403343
-0.00467606
-0.00534791
-0.00599094
0.00605333
0.00476399
0.00356056
0.00254326
0.00166635
0.000930611
0.000338687
-0.000125813
-0.000493649
-0.000803902
-0.00110012
-0.00142682
-0.00182591
-0.00233306
-0.00297381
-0.00375773
-0.00467397
-0.00571044
-0.0068963
-0.0081299
0.00844365
0.0061688
0.00417499
0.00262328
0.00139353
0.000461418
-0.000185136
-0.00058695
-0.000806291
-0.00091721
-0.00100021
-0.00113762
-0.0014086
-0.00188383
-0.00261939
-0.00364631
-0.00496281
-0.0065718
-0.00856098
-0.0107605
0.0107877
0.0069946
0.00384338
0.00157942
-5.22305e-05
-0.00112721
-0.0016877
-0.00181646
-0.00162619
-0.0012452
-0.000810948
-0.000464712
-0.000345239
-0.000581599
-0.00128355
-0.00252387
-0.0043247
-0.00672507
-0.00992127
-0.0136408
0.0121462
0.00612284
0.00136225
-0.00178161
-0.00379317
-0.00484286
-0.00502752
-0.00449646
-0.00343743
-0.0020571
-0.000574914
0.000781187
0.00178144
0.00220312
0.00184482
0.000555737
-0.0017407
-0.00516092
-0.0100935
-0.0161167
0.0106448
0.00150837
-0.0053572
-0.00947162
-0.0116912
-0.01235
-0.0116361
-0.00979663
-0.00712158
-0.00392064
-0.000521327
0.0027302
0.00547293
0.0073398
0.00797742
0.00709299
0.00449429
-9.36095e-05
-0.00739363
-0.0167764
0.00290651
-0.0103383
-0.0197464
-0.0247173
-0.0266916
-0.0262739
-0.0237963
-0.0196374
-0.0142113
-0.00794473
-0.00128885
0.00526674
0.0111871
0.0158953
0.0187952
0.0193431
0.0171118
0.0115072
0.00122067
-0.0128575
-0.0167259
-0.0350567
-0.0471739
-0.0524318
-0.0531882
-0.0504926
-0.0448942
-0.0369322
-0.0271427
-0.0160516
-0.0042129
0.00774703
0.0190973
0.0289853
0.0364529
0.040533
0.0403427
0.0346507
0.0210909
0.000799456
-0.0573049
-0.0814202
-0.0956625
-0.0996346
-0.0971996
-0.0901452
-0.0793378
-0.0654822
-0.049184
-0.0309783
-0.0114203
0.00881751
0.0288628
0.0475749
0.0635232
0.0750886
0.0805695
0.0775034
0.0615405
0.0337469
-0.133583
-0.163173
-0.176838
-0.175517
-0.165795
-0.15066
-0.131372
-0.108729
-0.0832451
-0.0552485
-0.0250455
0.00690461
0.03983
0.0724778
0.10299
0.12894
0.147363
0.15358
0.139385
0.104405
-0.271846
-0.302998
-0.307251
-0.290427
-0.264507
-0.234272
-0.201189
-0.165801
-0.128125
-0.087826
-0.0444701
0.00224009
0.0522339
0.104777
0.158158
0.209494
0.254388
0.28461
0.284672
0.248779
-0.524017
-0.535518
-0.504772
-0.450487
-0.391624
-0.334233
-0.279224
-0.226015
-0.173243
-0.119099
-0.0616119
0.00113771
0.0707727
0.148326
0.23372
0.325056
0.417342
0.498849
0.545528
0.538403
-1.0967
-0.944502
-0.779533
-0.639148
-0.521099
-0.421385
-0.336888
-0.263438
-0.196292
-0.130787
-0.0624204
0.0133027
0.100794
0.204611
0.329071
0.477114
0.648491
0.840585
1.04873
1.2318
-2.76845
-1.79786
-1.14016
-0.765719
-0.531897
-0.376514
-0.272107
-0.199474
-0.144145
-0.0955815
-0.0455122
0.0137026
0.0907776
0.19687
0.347415
0.562656
0.868305
1.31587
2.03234
3.04312
)
;

boundaryField
{
    movingWall
    {
        type            zeroGradient;
    }
    fixedWalls
    {
        type            zeroGradient;
    }
    frontAndBack
    {
        type            empty;
    }
}


// ************************************************************************* //
