/*--------------------------------*- C++ -*----------------------------------*\
  =========                 |
  \\      /  F ield         | OpenFOAM: The Open Source CFD Toolbox
   \\    /   O peration     | Website:  https://openfoam.org
    \\  /    A nd           | Version:  7
     \\/     M anipulation  |
\*---------------------------------------------------------------------------*/
FoamFile
{
    version     2.0;
    format      ascii;
    class       surfaceScalarField;
    location    "0.1";
    object      phi;
}
// * * * * * * * * * * * * * * * * * * * * * * * * * * * * * * * * * * * * * //

dimensions      [0 3 -1 0 0 0 0];

internalField   nonuniform List<scalar> 
760
(
8.9615e-10
-8.97874e-10
3.4016e-09
-2.50535e-09
6.77181e-09
-3.37013e-09
1.03147e-08
-3.54266e-09
1.35634e-08
-3.24863e-09
1.62631e-08
-2.6996e-09
1.83196e-08
-2.05625e-09
1.9739e-08
-1.41931e-09
2.0571e-08
-8.32025e-10
2.08627e-08
-2.91656e-10
2.06294e-08
2.33544e-10
1.98455e-08
7.84283e-10
1.84558e-08
1.38987e-09
1.6407e-08
2.04877e-09
1.36944e-08
2.71258e-09
1.04186e-08
3.276e-09
6.84331e-09
3.5755e-09
3.44365e-09
3.39967e-09
9.18567e-10
2.5247e-09
9.18223e-10
2.28085e-09
-3.1787e-09
6.87274e-09
-7.09709e-09
1.22864e-08
-8.78359e-09
1.75432e-08
-8.79929e-09
2.20601e-08
-7.76571e-09
2.55843e-08
-6.22407e-09
2.81044e-08
-4.57654e-09
2.97472e-08
-3.06242e-09
3.06801e-08
-1.7654e-09
3.10319e-08
-6.439e-10
3.08421e-08
4.23044e-10
3.0045e-08
1.58109e-09
2.84909e-08
2.94369e-09
2.60005e-08
4.53898e-09
2.24463e-08
6.26656e-09
1.78514e-08
7.87067e-09
1.24904e-08
8.936e-09
6.97514e-09
8.91374e-09
2.30905e-09
7.18922e-09
3.2274e-09
2.41573e-09
-5.59427e-09
6.73907e-09
-1.14203e-08
1.10648e-08
-1.31093e-08
1.43554e-08
-1.20899e-08
1.62361e-08
-9.64667e-09
1.68126e-08
-6.8005e-09
1.64904e-08
-4.25405e-09
1.57977e-08
-2.36966e-09
1.52281e-08
-1.19585e-09
1.51181e-08
-5.33786e-10
1.55699e-08
-2.81323e-11
1.64285e-08
7.23382e-10
1.7314e-08
2.05906e-09
1.7706e-08
4.14754e-09
1.70722e-08
6.90076e-09
1.50279e-08
9.91507e-09
1.1512e-08
1.24518e-08
6.95986e-09
1.34657e-08
2.47273e-09
1.16772e-08
5.69952e-09
1.70094e-09
-7.29523e-09
3.31469e-09
-1.30345e-08
2.83252e-09
-1.26274e-08
-4.30154e-10
-8.82719e-09
-6.17983e-09
-3.89738e-09
-1.3467e-08
4.86585e-10
-2.10009e-08
3.28002e-09
-2.74432e-08
4.07276e-09
-3.16603e-08
3.02116e-09
-3.29152e-08
7.21025e-10
-3.09835e-08
-1.95954e-09
-2.61896e-08
-4.07039e-09
-1.93547e-08
-4.77582e-09
-1.16669e-08
-3.54069e-09
-4.47725e-09
-2.89392e-10
9.5828e-10
4.47909e-09
3.77275e-09
9.63708e-09
3.79099e-09
1.34476e-08
1.83039e-09
1.36383e-08
7.52959e-09
-2.17653e-10
-7.07769e-09
-4.95445e-09
-8.29775e-09
-1.59223e-08
-1.6594e-09
-3.28142e-08
8.06522e-09
-5.39198e-08
1.72081e-08
-7.66723e-08
2.32393e-08
-9.81642e-08
2.47727e-08
-1.15619e-07
2.15279e-08
-1.26783e-07
1.41864e-08
-1.30226e-07
4.16347e-09
-1.25509e-07
-6.67555e-09
-1.13248e-07
-1.63313e-08
-9.50283e-08
-2.29956e-08
-7.32072e-08
-2.53622e-08
-5.05973e-08
-2.28997e-08
-3.00564e-08
-1.60622e-08
-1.40116e-08
-6.40812e-09
-3.95652e-09
3.39207e-09
6.35929e-11
9.61636e-09
7.59404e-09
-4.27508e-09
-2.80259e-09
-2.1545e-08
8.9724e-09
-5.24442e-08
2.92402e-08
-9.45779e-08
5.01998e-08
-1.43585e-07
6.62155e-08
-1.94044e-07
7.36984e-08
-2.4029e-07
7.10191e-08
-2.77143e-07
5.83816e-08
-3.00507e-07
3.75503e-08
-3.07807e-07
1.14632e-08
-2.98256e-07
-1.6227e-08
-2.72932e-07
-4.16552e-08
-2.34669e-07
-6.12584e-08
-1.87757e-07
-7.22751e-08
-1.37461e-07
-7.31957e-08
-8.93941e-08
-6.41285e-08
-4.8765e-08
-4.7037e-08
-1.95613e-08
-2.58118e-08
-3.68685e-09
-6.25947e-09
3.90764e-09
-1.20935e-08
9.29125e-09
-5.23205e-08
4.91999e-08
-1.18712e-07
9.56328e-08
-2.04888e-07
1.36377e-07
-3.01842e-07
1.63169e-07
-3.99373e-07
1.7123e-07
-4.87336e-07
1.58983e-07
-5.56719e-07
1.27765e-07
-6.00513e-07
8.13447e-08
-6.14345e-07
2.52946e-08
-5.96857e-07
-3.37154e-08
-5.4983e-07
-8.86828e-08
-4.78032e-07
-1.33057e-07
-3.88797e-07
-1.6151e-07
-2.91335e-07
-1.70658e-07
-1.95786e-07
-1.59677e-07
-1.12075e-07
-1.30748e-07
-4.86255e-08
-8.92618e-08
-1.09463e-08
-4.39367e-08
-7.03941e-09
-2.62011e-08
3.54929e-08
-1.06234e-07
1.29233e-07
-2.32731e-07
2.22129e-07
-3.92198e-07
2.95845e-07
-5.67885e-07
3.38857e-07
-7.41951e-07
3.45296e-07
-8.97282e-07
3.14315e-07
-1.01901e-06
2.49496e-07
-1.09572e-06
1.58053e-07
-1.1203e-06
4.98735e-08
-1.09048e-06
-6.35339e-08
-1.00902e-06
-1.70139e-07
-8.83542e-07
-2.58538e-07
-7.25954e-07
-3.19098e-07
-5.51534e-07
-3.45078e-07
-3.77574e-07
-3.33637e-07
-2.21689e-07
-2.86634e-07
-9.98443e-08
-2.11108e-07
-2.41184e-08
-1.19661e-07
-3.1158e-08
-5.02889e-08
8.57822e-08
-1.96041e-07
2.74985e-07
-4.19712e-07
4.45801e-07
-6.95804e-07
5.71937e-07
-9.95242e-07
6.38294e-07
-1.28851e-06
6.38567e-07
-1.54816e-06
5.73959e-07
-1.75077e-06
4.52112e-07
-1.87856e-06
2.85839e-07
-1.92041e-06
9.17227e-08
-1.87261e-06
-1.1133e-07
-1.73915e-06
-3.03602e-07
-1.53154e-06
-4.66141e-07
-1.26824e-06
-5.82399e-07
-9.73425e-07
-6.39896e-07
-6.75218e-07
-6.31845e-07
-4.03304e-07
-5.58548e-07
-1.86001e-07
-4.2841e-07
-4.68028e-08
-2.58861e-07
-7.79599e-08
-8.93892e-08
1.75172e-07
-3.38638e-07
5.24234e-07
-7.12348e-07
8.19511e-07
-1.16573e-06
1.02531e-06
-1.65099e-06
1.12356e-06
-2.12166e-06
1.10924e-06
-2.53572e-06
9.88015e-07
-2.858e-06
7.74394e-07
-3.06197e-06
4.89807e-07
-3.13096e-06
1.60712e-07
-3.05901e-06
-1.83277e-07
-2.85134e-06
-5.1127e-07
-2.52436e-06
-7.93122e-07
-2.10515e-06
-1.00162e-06
-1.63019e-06
-1.11485e-06
-1.14328e-06
-1.11876e-06
-6.9228e-07
-1.00954e-06
-3.25057e-07
-7.95631e-07
-8.41758e-08
-4.99742e-07
-1.62136e-07
-1.49835e-07
3.25006e-07
-5.54483e-07
9.28881e-07
-1.14894e-06
1.41397e-06
-1.85883e-06
1.7352e-06
-2.60935e-06
1.87408e-06
-3.33072e-06
1.83061e-06
-3.96177e-06
1.61907e-06
-4.45233e-06
1.26496e-06
-4.76483e-06
8.023e-07
-4.87536e-06
2.71246e-07
-4.77459e-06
-2.84043e-07
-4.46842e-06
-8.17446e-07
-3.97841e-06
-1.28313e-06
-3.34184e-06
-1.63818e-06
-2.61085e-06
-1.84584e-06
-1.85041e-06
-1.8792e-06
-1.13462e-06
-1.72534e-06
-5.41123e-07
-1.38912e-06
-1.43431e-07
-8.97433e-07
-3.05567e-07
-2.38832e-07
5.63838e-07
-8.65405e-07
1.55545e-06
-1.76789e-06
2.31645e-06
-2.82844e-06
2.79576e-06
-3.9353e-06
2.98093e-06
-4.989e-06
2.8843e-06
-5.90551e-06
2.53558e-06
-6.61769e-06
1.97714e-06
-7.07572e-06
1.26033e-06
-7.2474e-06
4.42929e-07
-7.11864e-06
-4.12805e-07
-6.69435e-06
-1.24174e-06
-5.99977e-06
-1.97771e-06
-5.08181e-06
-2.55615e-06
-4.00976e-06
-2.91788e-06
-2.87465e-06
-3.01432e-06
-1.78594e-06
-2.81405e-06
-8.65021e-07
-2.31004e-06
-2.34272e-07
-1.52818e-06
-5.39839e-07
-3.63642e-07
9.2748e-07
-1.29053e-06
2.48234e-06
-2.59716e-06
3.62309e-06
-4.10436e-06
4.30296e-06
-5.65297e-06
4.52954e-06
-7.10961e-06
4.34095e-06
-8.36741e-06
3.79338e-06
-9.34422e-06
2.95394e-06
-9.98022e-06
1.89634e-06
-1.0236e-05
6.98675e-07
-1.00916e-05
-5.57179e-07
-9.54778e-06
-1.78555e-06
-8.6284e-06
-2.89709e-06
-7.38447e-06
-3.80008e-06
-5.89861e-06
-4.40374e-06
-4.28828e-06
-4.62464e-06
-2.706e-06
-4.39634e-06
-1.33384e-06
-3.68219e-06
-3.69554e-07
-2.49247e-06
-9.09393e-07
-5.31123e-07
1.4586e-06
-1.84144e-06
3.79266e-06
-3.639e-06
5.42065e-06
-5.66087e-06
6.32484e-06
-7.69266e-06
6.56133e-06
-9.56998e-06
6.21826e-06
-1.1172e-05
5.39541e-06
-1.24126e-05
4.19453e-06
-1.32316e-05
2.71539e-06
-1.35886e-05
1.0556e-06
-1.34588e-05
-6.86965e-07
-1.28339e-05
-2.41043e-06
-1.1726e-05
-4.005e-06
-1.01757e-05
-5.3504e-06
-8.26326e-06
-6.31617e-06
-6.121e-06
-6.7669e-06
-3.94313e-06
-6.57422e-06
-1.9882e-06
-5.63712e-06
-5.6636e-07
-3.91431e-06
-1.47575e-06
-7.50552e-07
2.20915e-06
-2.52081e-06
5.56291e-06
-4.851e-06
7.75084e-06
-7.36858e-06
8.84242e-06
-9.80679e-06
8.99954e-06
-1.19903e-05
8.40181e-06
-1.38118e-05
7.21684e-06
-1.52083e-05
5.59103e-06
-1.61423e-05
3.64944e-06
-1.65877e-05
1.50095e-06
-1.65211e-05
-7.53547e-07
-1.59205e-05
-3.01099e-06
-1.47701e-05
-5.15543e-06
-1.30728e-05
-7.0477e-06
-1.08712e-05
-8.51771e-06
-8.27556e-06
-9.36257e-06
-5.4948e-06
-9.35498e-06
-2.86369e-06
-8.26823e-06
-8.48441e-07
-5.92955e-06
-2.3242e-06
-1.04612e-06
3.25527e-06
-3.32996e-06
7.84675e-06
-6.11717e-06
1.05381e-05
-8.90863e-06
1.16339e-05
-1.14233e-05
1.15142e-05
-1.35331e-05
1.05116e-05
-1.52025e-05
8.88628e-06
-1.64427e-05
6.83123e-06
-1.72779e-05
4.48468e-06
-1.77233e-05
1.94629e-06
-1.77712e-05
-7.05628e-07
-1.73863e-05
-3.39591e-06
-1.65083e-05
-6.03344e-06
-1.50661e-05
-8.48989e-06
-1.30062e-05
-1.05776e-05
-1.03392e-05
-1.20296e-05
-7.20653e-06
-1.24876e-05
-3.96212e-06
-1.15126e-05
-1.24949e-06
-8.64218e-06
-3.57369e-06
-1.47505e-06
4.73032e-06
-4.24531e-06
1.0617e-05
-7.11899e-06
1.34117e-05
-9.52617e-06
1.4041e-05
-1.13103e-05
1.32983e-05
-1.25189e-05
1.17202e-05
-1.32847e-05
9.65209e-06
-1.37578e-05
7.30434e-06
-1.40665e-05
4.7933e-06
-1.42949e-05
2.17471e-06
-1.44708e-05
-5.29728e-07
-1.45577e-05
-3.30902e-06
-1.44513e-05
-6.13983e-06
-1.39845e-05
-8.95665e-06
-1.29485e-05
-1.16136e-05
-1.11435e-05
-1.38346e-05
-8.47591e-06
-1.51552e-05
-5.12389e-06
-1.48647e-05
-1.80046e-06
-1.19656e-05
-5.37415e-06
-2.12322e-06
6.85354e-06
-4.88024e-06
1.3374e-05
-6.61007e-06
1.51416e-05
-7.08611e-06
1.45171e-05
-6.60396e-06
1.28162e-05
-5.56267e-06
1.06789e-05
-4.33428e-06
8.4237e-06
-3.2195e-06
6.18957e-06
-2.43792e-06
4.01172e-06
-2.13121e-06
1.86799e-06
-2.36619e-06
-2.94746e-07
-3.13071e-06
-2.54449e-06
-4.32272e-06
-4.94782e-06
-5.73115e-06
-7.54822e-06
-7.02037e-06
-1.03244e-05
-7.73711e-06
-1.31179e-05
-7.37305e-06
-1.55192e-05
-5.54171e-06
-1.6696e-05
-2.4633e-06
-1.5044e-05
-7.83745e-06
-2.82947e-06
9.68301e-06
-2.61799e-06
1.31626e-05
4.50298e-07
1.20733e-05
4.87531e-06
1.00921e-05
9.67305e-06
8.01846e-06
1.42232e-05
6.12875e-06
1.81398e-05
4.50703e-06
2.11913e-05
3.13807e-06
2.32405e-05
1.9626e-06
2.42025e-05
9.05958e-07
2.40203e-05
-1.12527e-07
2.26611e-05
-1.18533e-06
2.01198e-05
-2.4065e-06
1.64571e-05
-3.8855e-06
1.18564e-05
-5.72369e-06
6.71005e-06
-7.97158e-06
1.72323e-06
-1.05324e-05
-1.96215e-06
-1.30106e-05
-2.65413e-06
-1.4352e-05
-1.04916e-05
9.68301e-06
2.28456e-05
3.49188e-05
4.50109e-05
5.30294e-05
5.91581e-05
6.36652e-05
6.68032e-05
6.87658e-05
6.96718e-05
6.95593e-05
6.83739e-05
6.59674e-05
6.20819e-05
5.63582e-05
4.83866e-05
3.78542e-05
2.48436e-05
1.04916e-05
)
;

boundaryField
{
    movingWall
    {
        type            calculated;
        value           uniform 0;
    }
    fixedWalls
    {
        type            calculated;
        value           uniform 0;
    }
    frontAndBack
    {
        type            empty;
        value           nonuniform 0();
    }
}


// ************************************************************************* //
