/*--------------------------------*- C++ -*----------------------------------*\
  =========                 |
  \\      /  F ield         | OpenFOAM: The Open Source CFD Toolbox
   \\    /   O peration     | Website:  https://openfoam.org
    \\  /    A nd           | Version:  7
     \\/     M anipulation  |
\*---------------------------------------------------------------------------*/
FoamFile
{
    version     2.0;
    format      ascii;
    class       volVectorField;
    location    "0.1";
    object      U;
}
// * * * * * * * * * * * * * * * * * * * * * * * * * * * * * * * * * * * * * //

dimensions      [0 1 -1 0 0 0 0];

internalField   nonuniform List<vector> 
400
(
(3.27229e-06 -6.69638e-06 0)
(1.95039e-05 -1.99727e-05 0)
(4.94916e-05 -2.76818e-05 0)
(8.55123e-05 -2.97935e-05 0)
(0.000120294 -2.78243e-05 0)
(0.000150399 -2.34869e-05 0)
(0.000174254 -1.81421e-05 0)
(0.000191561 -1.26669e-05 0)
(0.000202708 -7.46798e-06 0)
(0.000208258 -2.57704e-06 0)
(0.000208562 2.20852e-06 0)
(0.000203567 7.16487e-06 0)
(0.000192821 1.24762e-05 0)
(0.000175699 1.80785e-05 0)
(0.000151805 2.35281e-05 0)
(0.000121479 2.7917e-05 0)
(8.63626e-05 2.98689e-05 0)
(5.01684e-05 2.76792e-05 0)
(1.97851e-05 1.98556e-05 0)
(3.57298e-06 6.75498e-06 0)
(9.97989e-06 -3.84445e-05 0)
(4.30811e-05 -9.1714e-05 0)
(9.45187e-05 -0.00011797 0)
(0.000150097 -0.000122118 0)
(0.000200106 -0.000111297 0)
(0.000240568 -9.2262e-05 0)
(0.000270572 -7.02349e-05 0)
(0.000290975 -4.85049e-05 0)
(0.000303459 -2.84791e-05 0)
(0.000309661 -1.00421e-05 0)
(0.000310504 7.88824e-06 0)
(0.000305852 2.66966e-05 0)
(0.000294532 4.73811e-05 0)
(0.000274734 6.99091e-05 0)
(0.000244713 9.26945e-05 0)
(0.000203672 0.000112282 0)
(0.000152692 0.000123332 0)
(9.60312e-05 0.000119046 0)
(4.36686e-05 9.23908e-05 0)
(1.01251e-05 3.89679e-05 0)
(1.13952e-05 -8.98066e-05 0)
(4.47977e-05 -0.000192583 0)
(8.98333e-05 -0.000232645 0)
(0.000129955 -0.000228387 0)
(0.00015626 -0.000197526 0)
(0.000167828 -0.00015489 0)
(0.000167846 -0.00011125 0)
(0.000161438 -7.28006e-05 0)
(0.000154052 -4.14117e-05 0)
(0.000150088 -1.54897e-05 0)
(0.000151864 8.74749e-06 0)
(0.000159104 3.57611e-05 0)
(0.000168986 6.91175e-05 0)
(0.000176747 0.000110019 0)
(0.000176771 0.000156103 0)
(0.000164021 0.000200681 0)
(0.000135637 0.000232574 0)
(9.30912e-05 0.000236704 0)
(4.60006e-05 0.000195492 0)
(1.15786e-05 9.11088e-05 0)
(1.00458e-05 -0.000135826 0)
(2.90767e-05 -0.000265913 0)
(3.65626e-05 -0.000292584 0)
(1.84438e-05 -0.000255438 0)
(-2.81413e-05 -0.00018813 0)
(-9.6222e-05 -0.000116667 0)
(-0.000173712 -5.83751e-05 0)
(-0.000246756 -2.15241e-05 0)
(-0.000302441 -6.14984e-06 0)
(-0.000331028 -5.82718e-06 0)
(-0.000327519 -1.00992e-05 0)
(-0.000292434 -7.28044e-06 0)
(-0.000231729 1.26348e-05 0)
(-0.000155868 5.52362e-05 0)
(-7.81173e-05 0.0001194 0)
(-1.22346e-05 0.000195696 0)
(3.02735e-05 0.00026576 0)
(4.34895e-05 0.000302854 0)
(3.17454e-05 0.000273357 0)
(1.0488e-05 0.000138764 0)
(5.07593e-06 -0.000158463 0)
(-1.17287e-05 -0.000257085 0)
(-8.89463e-05 -0.000212651 0)
(-0.000231045 -9.68153e-05 0)
(-0.00042653 3.36448e-05 0)
(-0.000652772 0.000137794 0)
(-0.000881205 0.000191188 0)
(-0.00108232 0.000185743 0)
(-0.00123009 0.000127818 0)
(-0.00130549 3.48967e-05 0)
(-0.0012989 -6.86746e-05 0)
(-0.00121123 -0.000156494 0)
(-0.00105384 -0.000205062 0)
(-0.000847075 -0.000198489 0)
(-0.000617715 -0.000132563 0)
(-0.000395235 -1.77706e-05 0)
(-0.000207283 0.000119156 0)
(-7.46343e-05 0.000235519 0)
(-5.96091e-06 0.000274131 0)
(6.13212e-06 0.000165079 0)
(-6.74579e-06 -0.000127012 0)
(-9.65417e-05 -7.50527e-05 0)
(-0.000337572 0.000148304 0)
(-0.000712235 0.000422812 0)
(-0.00118069 0.000658724 0)
(-0.00169199 0.000795915 0)
(-0.00218917 0.000803453 0)
(-0.00261637 0.000678304 0)
(-0.00292589 0.000441482 0)
(-0.00308346 0.000132235 0)
(-0.00307185 -0.000199048 0)
(-0.00289255 -0.000498671 0)
(-0.00256564 -0.000717678 0)
(-0.0021277 -0.000819589 0)
(-0.00162794 -0.00078726 0)
(-0.00112246 -0.000628277 0)
(-0.000667024 -0.000378206 0)
(-0.000309543 -0.000101087 0)
(-8.47903e-05 0.000111592 0)
(-4.44044e-06 0.000141623 0)
(-3.11749e-05 1.42113e-05 0)
(-0.000257834 0.000437511 0)
(-0.000794455 0.00102805 0)
(-0.001579 0.00159354 0)
(-0.00251986 0.00199879 0)
(-0.00351782 0.00216057 0)
(-0.00446929 0.00204477 0)
(-0.00527617 0.00166272 0)
(-0.0058564 0.00106418 0)
(-0.00615177 0.000327584 0)
(-0.00613298 -0.000451174 0)
(-0.00580219 -0.001171 0)
(-0.00519285 -0.00173813 0)
(-0.00436689 -0.00207842 0)
(-0.00340913 -0.00214843 0)
(-0.00241885 -0.00194477 0)
(-0.00149852 -0.00151031 0)
(-0.000742986 -0.000936487 0)
(-0.000235322 -0.000363682 0)
(-2.64367e-05 1.67084e-05 0)
(-7.74868e-05 0.000361448 0)
(-0.000545964 0.00154234 0)
(-0.00158873 0.00281318 0)
(-0.00306131 0.00387908 0)
(-0.00478273 0.00454554 0)
(-0.00657524 0.00470491 0)
(-0.00826213 0.00432848 0)
(-0.00968042 0.00345864 0)
(-0.0106959 0.00219657 0)
(-0.0112141 0.000687002 0)
(-0.0111874 -0.00089893 0)
(-0.010618 -0.00238197 0)
(-0.00955886 -0.00359357 0)
(-0.00810943 -0.00439451 0)
(-0.0064087 -0.00469255 0)
(-0.00462306 -0.00445789 0)
(-0.00292963 -0.00373465 0)
(-0.00150124 -0.0026468 0)
(-0.000505795 -0.001402 0)
(-6.84498e-05 -0.000299474 0)
(-0.000159643 0.00107245 0)
(-0.00103382 0.00365474 0)
(-0.00290307 0.00610435 0)
(-0.00547919 0.00798817 0)
(-0.00843448 0.00904095 0)
(-0.0114692 0.0091362 0)
(-0.014297 0.00826897 0)
(-0.0166599 0.00654056 0)
(-0.0183482 0.00413861 0)
(-0.0192149 0.00131409 0)
(-0.019185 -0.00164343 0)
(-0.0182593 -0.00443172 0)
(-0.0165166 -0.00676276 0)
(-0.0141087 -0.00839009 0)
(-0.011253 -0.00913582 0)
(-0.00821566 -0.00891566 0)
(-0.00528841 -0.00775944 0)
(-0.00276891 -0.00582424 0)
(-0.000968068 -0.00340541 0)
(-0.00014365 -0.000955449 0)
(-0.00029734 0.00239229 0)
(-0.00181989 0.00740044 0)
(-0.00497738 0.0117878 0)
(-0.00924415 0.0149489 0)
(-0.0140628 0.0165469 0)
(-0.0189528 0.0164568 0)
(-0.0234722 0.0147323 0)
(-0.0272309 0.011578 0)
(-0.0299162 0.00731912 0)
(-0.0313094 0.00236826 0)
(-0.0312956 -0.00280764 0)
(-0.0298707 -0.00772181 0)
(-0.0271433 -0.0119037 0)
(-0.023333 -0.0149373 0)
(-0.0187626 -0.0165005 0)
(-0.013839 -0.0164054 0)
(-0.00902258 -0.0146334 0)
(-0.00480342 -0.0113626 0)
(-0.00172491 -0.00699308 0)
(-0.000271574 -0.00218623 0)
(-0.000516448 0.00468134 0)
(-0.00302665 0.0136709 0)
(-0.00809838 0.021097 0)
(-0.0148322 0.0261641 0)
(-0.0223275 0.0284885 0)
(-0.0298498 0.0279958 0)
(-0.0367496 0.0248598 0)
(-0.042467 0.0194562 0)
(-0.046559 0.0123172 0)
(-0.0487156 0.00408852 0)
(-0.0487688 -0.004512 0)
(-0.0467001 -0.0127355 0)
(-0.042646 -0.0198462 0)
(-0.0369021 -0.0251708 0)
(-0.0299197 -0.028154 0)
(-0.0222898 -0.0284201 0)
(-0.0147069 -0.0258336 0)
(-0.00794661 -0.0205519 0)
(-0.00291798 -0.0130807 0)
(-0.000480565 -0.0043495 0)
(-0.000848358 0.00843928 0)
(-0.00479109 0.0236585 0)
(-0.012565 0.0356333 0)
(-0.0227072 0.0434052 0)
(-0.0338283 0.0466216 0)
(-0.0448589 0.0453595 0)
(-0.0548963 0.0400169 0)
(-0.063185 0.0312381 0)
(-0.0691379 0.0198514 0)
(-0.0723438 0.00681665 0)
(-0.0725697 -0.00681786 0)
(-0.0697671 -0.0199566 0)
(-0.0640833 -0.0315018 0)
(-0.0558769 -0.0404099 0)
(-0.04573 -0.0457635 0)
(-0.0344461 -0.0468607 0)
(-0.0230194 -0.0433166 0)
(-0.0126271 -0.0351645 0)
(-0.00473619 -0.0229686 0)
(-0.000811342 -0.00797166 0)
(-0.00132872 0.014316 0)
(-0.00724707 0.0388413 0)
(-0.0186236 0.0572931 0)
(-0.0331759 0.0686707 0)
(-0.048851 0.0728353 0)
(-0.0641752 0.0702062 0)
(-0.0779792 0.0615757 0)
(-0.0893276 0.0479929 0)
(-0.097514 0.0306835 0)
(-0.102045 0.0109965 0)
(-0.102625 -0.00962765 0)
(-0.0991533 -0.0296807 0)
(-0.0917446 -0.0476152 0)
(-0.0807638 -0.061892 0)
(-0.0668713 -0.0710593 0)
(-0.0510581 -0.0738734 0)
(-0.0346482 -0.069457 0)
(-0.0193411 -0.0574874 0)
(-0.00742471 -0.0384255 0)
(-0.00132326 -0.0138059 0)
(-0.00200044 0.0231062 0)
(-0.0105117 0.0608907 0)
(-0.0263817 0.0880315 0)
(-0.0461627 0.103799 0)
(-0.0669498 0.108647 0)
(-0.0868485 0.103689 0)
(-0.104497 0.0903799 0)
(-0.118889 0.0703549 0)
(-0.12931 0.0453334 0)
(-0.135268 0.0170873 0)
(-0.136441 -0.0125532 0)
(-0.132661 -0.0416735 0)
(-0.123932 -0.0682515 0)
(-0.110493 -0.0901594 0)
(-0.0929242 -0.105219 0)
(-0.0722527 -0.111334 0)
(-0.0500443 -0.106716 0)
(-0.0285818 -0.0902085 0)
(-0.0112957 -0.061739 0)
(-0.00210754 -0.0229105 0)
(-0.00293954 0.0357643 0)
(-0.0147194 0.0915024 0)
(-0.0357364 0.129376 0)
(-0.0608975 0.149655 0)
(-0.0862953 0.15416 0)
(-0.109754 0.145313 0)
(-0.129982 0.125649 0)
(-0.146192 0.0975986 0)
(-0.157919 0.063428 0)
(-0.164871 0.0252632 0)
(-0.166815 -0.0148185 0)
(-0.16352 -0.0546646 0)
(-0.154776 -0.0919156 0)
(-0.140482 -0.123897 0)
(-0.120812 -0.147577 0)
(-0.096443 -0.159639 0)
(-0.0688221 -0.156731 0)
(-0.0406392 -0.135952 0)
(-0.0167411 -0.0956731 0)
(-0.00331915 -0.0367765 0)
(-0.00434939 0.0535396 0)
(-0.0201856 0.132148 0)
(-0.0463198 0.181485 0)
(-0.0753658 0.20456 0)
(-0.102508 0.206099 0)
(-0.125832 0.190871 0)
(-0.144749 0.163035 0)
(-0.159249 0.125999 0)
(-0.169572 0.0824899 0)
(-0.175956 0.0347231 0)
(-0.178464 -0.015354 0)
(-0.176883 -0.0657865 0)
(-0.170717 -0.114313 0)
(-0.159263 -0.158065 0)
(-0.141817 -0.193297 0)
(-0.11801 -0.215234 0)
(-0.0883053 -0.218151 0)
(-0.0550056 -0.195863 0)
(-0.0241994 -0.14301 0)
(-0.00524252 -0.0574748 0)
(-0.00674223 0.0785223 0)
(-0.0275314 0.183452 0)
(-0.0567935 0.24093 0)
(-0.08439 0.261102 0)
(-0.105656 0.254384 0)
(-0.120404 0.229254 0)
(-0.12992 0.191938 0)
(-0.135773 0.146716 0)
(-0.139417 0.096369 0)
(-0.141955 0.0426485 0)
(-0.143972 -0.0132739 0)
(-0.145436 -0.0703651 0)
(-0.145643 -0.127259 0)
(-0.143211 -0.181723 0)
(-0.136191 -0.230044 0)
(-0.12234 -0.266363 0)
(-0.099707 -0.282139 0)
(-0.0682649 -0.266054 0)
(-0.0336342 -0.205081 0)
(-0.00834079 -0.0880212 0)
(-0.0110391 0.118028 0)
(-0.036294 0.245408 0)
(-0.0594473 0.296045 0)
(-0.0708632 0.299713 0)
(-0.0702545 0.276248 0)
(-0.0617336 0.238095 0)
(-0.0495781 0.192717 0)
(-0.0372434 0.144162 0)
(-0.0273275 0.0942485 0)
(-0.0216278 0.0434273 0)
(-0.021188 -0.00861334 0)
(-0.026298 -0.0624807 0)
(-0.0364195 -0.118602 0)
(-0.0500273 -0.176617 0)
(-0.0644059 -0.234472 0)
(-0.0755029 -0.287096 0)
(-0.078068 -0.324681 0)
(-0.0669958 -0.330745 0)
(-0.0419472 -0.279866 0)
(-0.0129792 -0.136122 0)
(-0.0139957 0.183527 0)
(-0.0329829 0.302881 0)
(-0.0156928 0.310048 0)
(0.0244749 0.276443 0)
(0.0726314 0.230362 0)
(0.120518 0.183116 0)
(0.163528 0.139143 0)
(0.198795 0.0995032 0)
(0.224566 0.0635724 0)
(0.239793 0.0299317 0)
(0.243807 -0.00324601 0)
(0.236157 -0.0380512 0)
(0.216609 -0.0767425 0)
(0.185355 -0.121484 0)
(0.143492 -0.173678 0)
(0.0936596 -0.23248 0)
(0.040803 -0.292118 0)
(-0.00587274 -0.337398 0)
(-0.0293408 -0.333752 0)
(-0.0131529 -0.202592 0)
(0.111736 0.111765 0)
(0.169601 0.163784 0)
(0.284617 0.152272 0)
(0.400837 0.124526 0)
(0.493735 0.0957513 0)
(0.564357 0.0705816 0)
(0.617061 0.0500943 0)
(0.654927 0.0338845 0)
(0.68018 0.0209616 0)
(0.694385 0.0101666 0)
(0.698356 0.000296279 0)
(0.692037 -0.00992608 0)
(0.674427 -0.0219504 0)
(0.643518 -0.0374509 0)
(0.59628 -0.0582418 0)
(0.528548 -0.0857644 0)
(0.434507 -0.119712 0)
(0.311063 -0.15492 0)
(0.183504 -0.172949 0)
(0.115381 -0.119796 0)
)
;

boundaryField
{
    movingWall
    {
        type            fixedValue;
        value           uniform (1 0 0);
    }
    fixedWalls
    {
        type            noSlip;
    }
    frontAndBack
    {
        type            empty;
    }
}


// ************************************************************************* //
