/*--------------------------------*- C++ -*----------------------------------*\
  =========                 |
  \\      /  F ield         | OpenFOAM: The Open Source CFD Toolbox
   \\    /   O peration     | Website:  https://openfoam.org
    \\  /    A nd           | Version:  7
     \\/     M anipulation  |
\*---------------------------------------------------------------------------*/
FoamFile
{
    version     2.0;
    format      ascii;
    class       volScalarField;
    location    "0.2";
    object      p;
}
// * * * * * * * * * * * * * * * * * * * * * * * * * * * * * * * * * * * * * //

dimensions      [0 2 -2 0 0 0 0];

internalField   nonuniform List<scalar> 
400
(
3.77691e-11
-5.8925e-05
-6.51226e-05
-1.83857e-05
8.07783e-05
0.000232281
0.000435861
0.000690809
0.000995168
0.00134478
0.0017324
0.00214697
0.00257306
0.00299088
0.00337684
0.00370525
0.00395142
0.00409671
0.00413307
0.00406499
5.95489e-05
-9.87529e-07
-7.74449e-07
4.82799e-05
0.000143386
0.000286686
0.000479441
0.000721763
0.0010123
0.00134745
0.00172052
0.00212107
0.00253435
0.002941
0.00331786
0.00363973
0.00388305
0.00403132
0.00407393
0.00400222
6.13655e-05
-1.08576e-05
-1.31704e-05
3.36171e-05
0.000124067
0.000261103
0.000446954
0.000682703
0.000968041
0.00130043
0.00167422
0.00207978
0.00250256
0.00292283
0.003316
0.00365443
0.00391166
0.00406864
0.00411028
0.00401976
-8.15115e-07
-8.49043e-05
-9.26118e-05
-5.02818e-05
3.48696e-05
0.000166293
0.000347191
0.000579904
0.000865604
0.00120333
0.00158891
0.00201384
0.00246396
0.00291838
0.00334966
0.00372527
0.00401267
0.00418716
0.00422885
0.00411667
-0.000131543
-0.000225689
-0.000239261
-0.000202294
-0.000123013
2.76536e-06
0.000179481
0.000411106
0.000700796
0.00104979
0.00145606
0.00191284
0.00240692
0.00291594
0.00340833
0.00384416
0.00418101
0.00438499
0.00443012
0.004293
-0.000333827
-0.000438236
-0.000458404
-0.000427763
-0.000355415
-0.000236276
-6.438e-05
0.00016631
0.000461547
0.000825594
0.0012596
0.00175962
0.00231482
0.0029015
0.00348311
0.00400918
0.00442214
0.00467277
0.004725
0.00455274
-0.000610424
-0.000726719
-0.000754757
-0.000732032
-0.000668806
-0.000559029
-0.000394966
-0.000168076
0.000130706
0.000509748
0.000974727
0.00152597
0.00215908
0.00284905
0.00355468
0.00421183
0.00474
0.00506413
0.0051288
0.00490163
-0.00096514
-0.00109567
-0.00113333
-0.0011209
-0.00107042
-0.000974962
-0.000824907
-0.00060886
-0.000313733
7.42044e-05
0.000566841
0.0011695
0.00189513
0.00271434
0.00358595
0.00443015
0.00513296
0.0055756
0.00566361
0.00534564
-0.00140316
-0.00155075
-0.00160002
-0.0016009
-0.00156819
-0.00149443
-0.00136825
-0.00117531
-0.000898008
-0.000516023
-7.13492e-06
0.000651406
0.00145832
0.00242416
0.00350775
0.00461394
0.00558322
0.00622412
0.00636191
0.00588907
-0.00193125
-0.00209897
-0.00216164
-0.00217889
-0.00216988
-0.00212737
-0.00203878
-0.00188726
-0.00165102
-0.00130295
-0.000810643
-0.000138648
0.000741835
0.00185674
0.00319141
0.00465202
0.00602877
0.0070139
0.00726729
0.00653633
-0.0025584
-0.00274936
-0.00282589
-0.00286134
-0.00288175
-0.0028813
-0.00284721
-0.00276136
-0.00259904
-0.00232762
-0.00190469
-0.00127817
-0.000389457
0.000821179
0.00240087
0.00429947
0.00628863
0.00789187
0.00842203
0.00732467
-0.00329762
-0.00351424
-0.00360176
-0.00365372
-0.00370693
-0.00375869
-0.00379746
-0.00380582
-0.00375901
-0.00362283
-0.00335009
-0.00287563
-0.00211449
-0.000968546
0.00071173
0.003013
0.00583902
0.00856496
0.00981276
0.00848884
-0.00416958
-0.00441202
-0.00450037
-0.00455959
-0.00464335
-0.00475374
-0.00488185
-0.00501347
-0.00512824
-0.00519765
-0.00518074
-0.00501708
-0.00461854
-0.0038589
-0.00257043
-0.00033246
0.00326141
0.00782151
0.0109822
0.010653
-0.00521054
-0.00547244
-0.00553632
-0.00557934
-0.00568114
-0.00584891
-0.0060762
-0.00635397
-0.00667125
-0.00701534
-0.00737002
-0.00771263
-0.00801719
-0.0082591
-0.00830368
-0.0074904
-0.00423661
0.00242533
0.0096841
0.0135449
-0.00648785
-0.0067465
-0.00672889
-0.00670735
-0.00679933
-0.00701165
-0.00733612
-0.0077679
-0.00830841
-0.00897002
-0.00978203
-0.0108018
-0.012151
-0.0140815
-0.0167907
-0.0193967
-0.0188827
-0.011402
0.00139032
0.0134757
-0.00813368
-0.00831957
-0.00809377
-0.0079219
-0.00795947
-0.00819102
-0.00859532
-0.00916561
-0.00991251
-0.0108748
-0.0121384
-0.0138709
-0.0164009
-0.0203427
-0.0263861
-0.0338204
-0.0377741
-0.0312776
-0.0139929
0.00884981
-0.0104865
-0.010389
-0.00967127
-0.0091841
-0.00909594
-0.00930825
-0.00976024
-0.0104278
-0.0113195
-0.0124886
-0.0140673
-0.0163191
-0.0197584
-0.0252272
-0.0335707
-0.044137
-0.0518534
-0.0459857
-0.0241955
0.0132003
-0.0143936
-0.0130484
-0.01116
-0.0102662
-0.0100495
-0.0102239
-0.0106874
-0.0113944
-0.0123492
-0.0136044
-0.0153168
-0.0177921
-0.0216475
-0.0276728
-0.0364313
-0.0464822
-0.0521223
-0.0409558
-0.00691895
0.0575104
-0.0188936
-0.0170927
-0.0135202
-0.011394
-0.010688
-0.0106322
-0.010995
-0.0116677
-0.012638
-0.0139335
-0.0157409
-0.0183521
-0.0223523
-0.0281253
-0.0354885
-0.0413998
-0.0382703
-0.0110475
0.0517233
0.154879
-0.0513003
-0.0182164
-0.00814222
-0.00668127
-0.00678028
-0.00714717
-0.00786193
-0.00892408
-0.0103116
-0.0120065
-0.0142606
-0.0173055
-0.0216349
-0.0269736
-0.0319887
-0.0315168
-0.0161366
0.0339291
0.134572
0.284047
)
;

boundaryField
{
    movingWall
    {
        type            zeroGradient;
    }
    fixedWalls
    {
        type            zeroGradient;
    }
    frontAndBack
    {
        type            empty;
    }
}


// ************************************************************************* //
