/*--------------------------------*- C++ -*----------------------------------*\
  =========                 |
  \\      /  F ield         | OpenFOAM: The Open Source CFD Toolbox
   \\    /   O peration     | Website:  https://openfoam.org
    \\  /    A nd           | Version:  7
     \\/     M anipulation  |
\*---------------------------------------------------------------------------*/
FoamFile
{
    version     2.0;
    format      ascii;
    class       surfaceScalarField;
    location    "0.2";
    object      phi;
}
// * * * * * * * * * * * * * * * * * * * * * * * * * * * * * * * * * * * * * //

dimensions      [0 3 -1 0 0 0 0];

internalField   nonuniform List<scalar> 
760
(
-1.29394e-08
1.29394e-08
-5.79565e-08
4.50171e-08
-1.17281e-07
5.93246e-08
-1.79077e-07
6.17956e-08
-2.38617e-07
5.954e-08
-2.93878e-07
5.52615e-08
-3.43419e-07
4.95409e-08
-3.85732e-07
4.23127e-08
-4.19105e-07
3.33734e-08
-4.41645e-07
2.25402e-08
-4.51366e-07
9.72074e-09
-4.46324e-07
-5.04169e-09
-4.24871e-07
-2.14524e-08
-3.85969e-07
-3.89025e-08
-3.29617e-07
-5.63519e-08
-2.57489e-07
-7.21281e-08
-1.74066e-07
-8.34229e-08
-8.91116e-08
-8.49545e-08
-2.20908e-08
-6.70207e-08
-2.20907e-08
-4.71228e-08
6.00622e-08
-1.48688e-07
1.46582e-07
-2.72225e-07
1.82861e-07
-3.9919e-07
1.88761e-07
-5.20614e-07
1.80964e-07
-6.31837e-07
1.66484e-07
-7.29541e-07
1.47246e-07
-8.10648e-07
1.23419e-07
-8.72008e-07
9.47337e-08
-9.1039e-07
6.09226e-08
-9.22629e-07
2.19604e-08
-9.05784e-07
-2.18863e-08
-8.57545e-07
-6.96915e-08
-7.76787e-07
-1.19661e-07
-6.64236e-07
-1.68902e-07
-5.23564e-07
-2.12801e-07
-3.63251e-07
-2.43735e-07
-2.0002e-07
-2.48186e-07
-6.36839e-08
-2.03356e-07
-8.57746e-08
-6.60889e-08
1.26151e-07
-1.98e-07
2.78493e-07
-3.54329e-07
3.3919e-07
-5.13294e-07
3.47726e-07
-6.64465e-07
3.32134e-07
-8.02257e-07
3.04277e-07
-9.22646e-07
2.67635e-07
-1.02196e-06
2.2273e-07
-1.09652e-06
1.69294e-07
-1.14261e-06
1.07017e-07
-1.15658e-06
3.59248e-08
-1.13494e-06
-4.35216e-08
-1.07494e-06
-1.29689e-07
-9.75072e-07
-2.19532e-07
-8.35977e-07
-3.07998e-07
-6.61846e-07
-3.86932e-07
-4.62719e-07
-4.42862e-07
-2.58485e-07
-4.52419e-07
-8.49629e-08
-3.76878e-07
-1.70738e-07
-7.49645e-08
2.01116e-07
-2.23652e-07
4.27181e-07
-3.98457e-07
5.13994e-07
-5.75315e-07
5.24584e-07
-7.43207e-07
5.00026e-07
-8.96381e-07
4.57451e-07
-1.0307e-06
4.01951e-07
-1.14234e-06
3.3437e-07
-1.22742e-06
2.54376e-07
-1.28189e-06
1.61486e-07
-1.30157e-06
5.56045e-08
-1.28219e-06
-6.2899e-08
-1.21993e-06
-1.91947e-07
-1.11209e-06
-3.27376e-07
-9.5822e-07
-4.61868e-07
-7.62044e-07
-5.83108e-07
-5.34508e-07
-6.70399e-07
-2.98767e-07
-6.88159e-07
-9.75637e-08
-5.78082e-07
-2.68301e-07
-8.08436e-08
2.81959e-07
-2.4201e-07
5.88347e-07
-4.31216e-07
7.032e-07
-6.22442e-07
7.1581e-07
-8.04269e-07
6.81853e-07
-9.71015e-07
6.24198e-07
-1.11867e-06
5.49602e-07
-1.24346e-06
4.59163e-07
-1.34141e-06
3.52328e-07
-1.40811e-06
2.28188e-07
-1.43865e-06
8.61439e-08
-1.4276e-06
-7.39476e-08
-1.36927e-06
-2.50282e-07
-1.25874e-06
-4.37905e-07
-1.0933e-06
-6.27307e-07
-8.75201e-07
-8.01205e-07
-6.16126e-07
-9.29474e-07
-3.43865e-07
-9.6042e-07
-1.10961e-07
-8.10986e-07
-3.79262e-07
-8.69861e-08
3.68945e-07
-2.61154e-07
7.62515e-07
-4.65595e-07
9.07641e-07
-6.72307e-07
9.22522e-07
-8.69505e-07
8.79052e-07
-1.0517e-06
8.06394e-07
-1.21517e-06
7.13072e-07
-1.35638e-06
6.00367e-07
-1.47136e-06
4.67315e-07
-1.55541e-06
3.12234e-07
-1.60276e-06
1.33498e-07
-1.60648e-06
-7.0229e-08
-1.55812e-06
-2.98648e-07
-1.4493e-06
-5.46719e-07
-1.27334e-06
-8.03267e-07
-1.02933e-06
-1.04522e-06
-7.29007e-07
-1.22979e-06
-4.06601e-07
-1.28283e-06
-1.29486e-07
-1.0881e-06
-5.08749e-07
-9.45493e-08
4.63494e-07
-2.84212e-07
9.52178e-07
-5.0663e-07
1.13006e-06
-7.31551e-07
1.14744e-06
-9.46849e-07
1.09435e-06
-1.14738e-06
1.00693e-06
-1.32995e-06
8.95635e-07
-1.49148e-06
7.61904e-07
-1.62834e-06
6.04175e-07
-1.73572e-06
4.19607e-07
-1.80706e-06
2.04846e-07
-1.83401e-06
-4.32854e-08
-1.80415e-06
-3.28509e-07
-1.70424e-06
-6.46623e-07
-1.52099e-06
-9.86521e-07
-1.2471e-06
-1.31911e-06
-8.92153e-07
-1.58474e-06
-4.98383e-07
-1.6766e-06
-1.56235e-07
-1.43025e-06
-6.64983e-07
-1.03978e-07
5.67473e-07
-3.12414e-07
1.16061e-06
-5.56186e-07
1.37383e-06
-8.02382e-07
1.39364e-06
-1.03859e-06
1.33055e-06
-1.26025e-06
1.22859e-06
-1.46501e-06
1.1004e-06
-1.65072e-06
9.47607e-07
-1.8145e-06
7.67963e-07
-1.95199e-06
5.57098e-07
-2.05615e-06
3.09006e-07
-2.11826e-06
1.8822e-08
-2.12016e-06
-3.26606e-07
-2.04275e-06
-7.24038e-07
-1.86209e-06
-1.16719e-06
-1.55866e-06
-1.62253e-06
-1.13399e-06
-2.00942e-06
-6.37815e-07
-2.17277e-06
-1.96438e-07
-1.87163e-06
-8.61421e-07
-1.15626e-07
6.83099e-07
-3.46613e-07
1.3916e-06
-6.15336e-07
1.64256e-06
-8.85714e-07
1.66402e-06
-1.14517e-06
1.59001e-06
-1.39008e-06
1.4735e-06
-1.6194e-06
1.32971e-06
-1.83245e-06
1.16066e-06
-2.02797e-06
9.6348e-07
-2.20305e-06
7.32174e-07
-2.35178e-06
4.5774e-07
-2.4625e-06
1.29538e-07
-2.51791e-06
-2.71191e-07
-2.48781e-06
-7.54145e-07
-2.33334e-06
-1.32165e-06
-2.01305e-06
-1.94283e-06
-1.50683e-06
-2.51564e-06
-8.63808e-07
-2.81579e-06
-2.63132e-07
-2.4723e-06
-1.12455e-06
-1.30074e-07
8.13173e-07
-3.88034e-07
1.64956e-06
-6.85457e-07
1.93998e-06
-9.82506e-07
1.96107e-06
-1.26668e-06
1.87418e-06
-1.53578e-06
1.7426e-06
-1.79064e-06
1.58457e-06
-2.03281e-06
1.40284e-06
-2.2636e-06
1.19427e-06
-2.48299e-06
9.51565e-07
-2.68784e-06
6.62591e-07
-2.86857e-06
3.10263e-07
-3.00775e-06
-1.32013e-07
-3.06678e-06
-6.95116e-07
-2.98761e-06
-1.40081e-06
-2.69184e-06
-2.2386e-06
-2.10975e-06
-3.09773e-06
-1.26125e-06
-3.66429e-06
-3.91512e-07
-3.34204e-06
-1.51607e-06
-1.48417e-07
9.6159e-07
-4.38859e-07
1.94e-06
-7.68942e-07
2.27006e-06
-1.09449e-06
2.28661e-06
-1.40356e-06
2.18325e-06
-1.69603e-06
2.03508e-06
-1.97527e-06
1.86381e-06
-2.24586e-06
1.67343e-06
-2.51287e-06
1.46128e-06
-2.78109e-06
1.21979e-06
-3.05342e-06
9.34926e-07
-3.32648e-06
5.8332e-07
-3.5912e-06
1.32703e-07
-3.8045e-06
-4.81809e-07
-3.89128e-06
-1.31404e-06
-3.71721e-06
-2.41267e-06
-3.1125e-06
-3.70243e-06
-1.99808e-06
-4.77871e-06
-6.68793e-07
-4.67133e-06
-2.18486e-06
-1.72714e-07
1.1343e-06
-5.02996e-07
2.27029e-06
-8.7001e-07
2.63708e-06
-1.22483e-06
2.64143e-06
-1.5571e-06
2.51552e-06
-1.86968e-06
2.34766e-06
-2.16915e-06
2.16328e-06
-2.4637e-06
1.96798e-06
-2.76322e-06
1.76079e-06
-3.07941e-06
1.53598e-06
-3.42532e-06
1.28083e-06
-3.81287e-06
9.70875e-07
-4.24225e-06
5.62081e-07
-4.69845e-06
-2.56106e-08
-5.08911e-06
-9.23381e-07
-5.21e-06
-2.29178e-06
-4.72073e-06
-4.19171e-06
-3.32064e-06
-6.1788e-06
-1.26314e-06
-6.72882e-06
-3.448e-06
-2.068e-07
1.3411e-06
-5.87351e-07
2.65084e-06
-9.95836e-07
3.04556e-06
-1.37897e-06
3.02456e-06
-1.73006e-06
2.86661e-06
-2.05631e-06
2.67391e-06
-2.36791e-06
2.47488e-06
-2.67675e-06
2.27682e-06
-2.99762e-06
2.08167e-06
-3.35018e-06
1.88853e-06
-3.76087e-06
1.69152e-06
-4.26313e-06
1.47314e-06
-4.89049e-06
1.18944e-06
-5.65561e-06
7.39507e-07
-6.48601e-06
-9.29726e-08
-7.0969e-06
-1.68089e-06
-6.92637e-06
-4.36224e-06
-5.33657e-06
-7.76861e-06
-2.35337e-06
-9.71202e-06
-5.80136e-06
-2.57888e-07
1.59899e-06
-7.04052e-07
3.097e-06
-1.15819e-06
3.4997e-06
-1.56536e-06
3.43173e-06
-1.92693e-06
3.22818e-06
-2.25626e-06
3.00324e-06
-2.56706e-06
2.78568e-06
-2.87377e-06
2.58352e-06
-3.19434e-06
2.40225e-06
-3.5545e-06
2.24869e-06
-3.99304e-06
2.13006e-06
-4.56662e-06
2.04671e-06
-5.34666e-06
1.96949e-06
-6.38785e-06
1.7807e-06
-7.63254e-06
1.15171e-06
-8.74106e-06
-5.7236e-07
-9.00503e-06
-4.09828e-06
-7.4977e-06
-9.27593e-06
-3.83891e-06
-1.33708e-05
-9.64027e-06
-3.39667e-07
1.93866e-06
-8.74482e-07
3.63182e-06
-1.37554e-06
4.00075e-06
-1.79553e-06
3.85171e-06
-2.15257e-06
3.58522e-06
-2.46818e-06
3.31885e-06
-2.75832e-06
3.07583e-06
-3.03706e-06
2.86225e-06
-3.32104e-06
2.68623e-06
-3.63507e-06
2.56272e-06
-4.0198e-06
2.51479e-06
-4.54013e-06
2.56704e-06
-5.28485e-06
2.71421e-06
-6.32994e-06
2.82579e-06
-7.64157e-06
2.46334e-06
-8.85718e-06
6.43248e-07
-9.44969e-06
-3.50577e-06
-8.45876e-06
-1.02669e-05
-5.07563e-06
-1.67539e-05
-1.47159e-05
-4.79658e-07
2.41832e-06
-1.13685e-06
4.28901e-06
-1.67363e-06
4.53753e-06
-2.07945e-06
4.25753e-06
-2.4028e-06
3.90857e-06
-2.67312e-06
3.58918e-06
-2.90591e-06
3.30861e-06
-3.11128e-06
3.06762e-06
-3.29898e-06
2.87394e-06
-3.48231e-06
2.74605e-06
-3.68387e-06
2.71635e-06
-3.94211e-06
2.82528e-06
-4.31863e-06
3.09072e-06
-4.87625e-06
3.38341e-06
-5.62362e-06
3.21071e-06
-6.49003e-06
1.50966e-06
-7.16316e-06
-2.83264e-06
-7.09611e-06
-1.03339e-05
-5.04215e-06
-1.88079e-05
-1.97581e-05
-7.39396e-07
3.15771e-06
-1.56136e-06
5.11098e-06
-2.08665e-06
5.06282e-06
-2.40538e-06
4.57626e-06
-2.61427e-06
4.11746e-06
-2.74861e-06
3.72352e-06
-2.82382e-06
3.38382e-06
-2.84833e-06
3.09214e-06
-2.82708e-06
2.85268e-06
-2.75907e-06
2.67804e-06
-2.63979e-06
2.59707e-06
-2.45372e-06
2.63922e-06
-2.2042e-06
2.8412e-06
-1.91939e-06
3.09859e-06
-1.72334e-06
3.01466e-06
-1.8464e-06
1.63273e-06
-2.428e-06
-2.25105e-06
-3.34821e-06
-9.41369e-06
-3.34126e-06
-1.88149e-05
-2.30993e-05
-1.264e-06
4.42171e-06
-2.2789e-06
6.12588e-06
-2.60695e-06
5.39087e-06
-2.54177e-06
4.51108e-06
-2.30372e-06
3.87942e-06
-1.97058e-06
3.39037e-06
-1.5774e-06
2.99064e-06
-1.14358e-06
2.65832e-06
-6.80199e-07
2.38929e-06
-1.8e-07
2.17785e-06
3.77154e-07
2.03992e-06
1.02612e-06
1.99025e-06
1.81699e-06
2.05033e-06
2.77838e-06
2.1372e-06
3.77175e-06
2.0213e-06
4.3676e-06
1.03688e-06
3.99681e-06
-1.88025e-06
2.31166e-06
-7.72855e-06
5.44841e-07
-1.7048e-05
-2.25545e-05
-3.97658e-06
8.39829e-06
-3.25129e-06
5.4006e-06
-1.36394e-06
3.50352e-06
3.61505e-07
2.78563e-06
1.91685e-06
2.32407e-06
3.35406e-06
1.95316e-06
4.68914e-06
1.65556e-06
5.92648e-06
1.42098e-06
7.07243e-06
1.24334e-06
8.14758e-06
1.1027e-06
9.17481e-06
1.01268e-06
1.02069e-05
9.58205e-07
1.12919e-05
9.65306e-07
1.24864e-05
9.42633e-07
1.37056e-05
8.02145e-07
1.44333e-05
3.09131e-07
1.39382e-05
-1.38507e-06
1.12753e-05
-5.06568e-06
5.68548e-06
-1.14582e-05
-1.6869e-05
8.39829e-06
1.37989e-05
1.73024e-05
2.0088e-05
2.24121e-05
2.43653e-05
2.60208e-05
2.74418e-05
2.86852e-05
2.97879e-05
3.08005e-05
3.17587e-05
3.27241e-05
3.36667e-05
3.44688e-05
3.4778e-05
3.33929e-05
2.83272e-05
1.6869e-05
)
;

boundaryField
{
    movingWall
    {
        type            calculated;
        value           uniform 0;
    }
    fixedWalls
    {
        type            calculated;
        value           uniform 0;
    }
    frontAndBack
    {
        type            empty;
        value           nonuniform 0();
    }
}


// ************************************************************************* //
