/*--------------------------------*- C++ -*----------------------------------*\
  =========                 |
  \\      /  F ield         | OpenFOAM: The Open Source CFD Toolbox
   \\    /   O peration     | Website:  https://openfoam.org
    \\  /    A nd           | Version:  7
     \\/     M anipulation  |
\*---------------------------------------------------------------------------*/
FoamFile
{
    version     2.0;
    format      ascii;
    class       volVectorField;
    location    "0.2";
    object      U;
}
// * * * * * * * * * * * * * * * * * * * * * * * * * * * * * * * * * * * * * //

dimensions      [0 1 -1 0 0 0 0];

internalField   nonuniform List<vector> 
400
(
(-4.68044e-05 4.18903e-05 0)
(-0.000595373 0.000312016 0)
(-0.0017196 0.000439172 0)
(-0.0029678 0.000463518 0)
(-0.00419376 0.00045026 0)
(-0.00534861 0.000423324 0)
(-0.0064025 0.000386693 0)
(-0.00732688 0.00033877 0)
(-0.0080897 0.000276951 0)
(-0.00865477 0.000198936 0)
(-0.00898293 0.00010326 0)
(-0.00903434 -1.02908e-05 0)
(-0.00877224 -0.000139857 0)
(-0.00816876 -0.000280535 0)
(-0.00721212 -0.000423772 0)
(-0.00591697 -0.000555607 0)
(-0.00433899 -0.000652154 0)
(-0.00259942 -0.000666223 0)
(-0.000967692 -0.000508441 0)
(-0.000112961 -0.000123486 0)
(-0.000335085 0.000604299 0)
(-0.00176185 0.00170338 0)
(-0.00414812 0.00218319 0)
(-0.00673015 0.00226737 0)
(-0.00924149 0.00218205 0)
(-0.0115835 0.002019 0)
(-0.0136861 0.00180061 0)
(-0.0154868 0.00152665 0)
(-0.0169236 0.00119163 0)
(-0.0179325 0.000790537 0)
(-0.018449 0.000321225 0)
(-0.0184107 -0.000213354 0)
(-0.0177639 -0.000802026 0)
(-0.0164721 -0.0014228 0)
(-0.0145289 -0.00203889 0)
(-0.0119747 -0.00259174 0)
(-0.00891928 -0.00298397 0)
(-0.00557333 -0.00303814 0)
(-0.00239346 -0.0024461 0)
(-0.000462377 -0.000934174 0)
(-0.000496472 0.00180802 0)
(-0.00240527 0.00414409 0)
(-0.00545401 0.00509947 0)
(-0.00870184 0.00524573 0)
(-0.0118364 0.00502028 0)
(-0.0147453 0.00460853 0)
(-0.0173438 0.00406361 0)
(-0.0195561 0.00339216 0)
(-0.0213094 0.0025888 0)
(-0.0225296 0.00164791 0)
(-0.0231424 0.000568976 0)
(-0.0230753 -0.000638601 0)
(-0.0222642 -0.00194954 0)
(-0.0206638 -0.00331631 0)
(-0.0182622 -0.00466036 0)
(-0.0151035 -0.0058568 0)
(-0.011315 -0.00670014 0)
(-0.00714375 -0.00683125 0)
(-0.00313873 -0.00565126 0)
(-0.000637433 -0.00249364 0)
(-0.000564886 0.00324576 0)
(-0.00272387 0.00700038 0)
(-0.00614745 0.00846677 0)
(-0.00976905 0.00865898 0)
(-0.0132516 0.00826115 0)
(-0.0164824 0.00756097 0)
(-0.0193749 0.00664387 0)
(-0.0218508 0.00552369 0)
(-0.0238338 0.00419488 0)
(-0.0252447 0.00265017 0)
(-0.0260008 0.000888842 0)
(-0.0260167 -0.00107593 0)
(-0.0252094 -0.00320811 0)
(-0.0235105 -0.00543503 0)
(-0.0208838 -0.00763306 0)
(-0.0173561 -0.00960049 0)
(-0.0130554 -0.0110027 0)
(-0.00826064 -0.011263 0)
(-0.00361972 -0.00942873 0)
(-0.000726752 -0.0043386 0)
(-0.000606009 0.00480646 0)
(-0.00294248 0.0101027 0)
(-0.00665351 0.0121097 0)
(-0.0105708 0.0123415 0)
(-0.0143371 0.0117585 0)
(-0.0178428 0.0107583 0)
(-0.0210042 0.00945896 0)
(-0.0237453 0.00788023 0)
(-0.0259895 0.00601394 0)
(-0.0276535 0.00384721 0)
(-0.0286443 0.00137329 0)
(-0.0288578 -0.00139823 0)
(-0.0281804 -0.00442889 0)
(-0.0265019 -0.00762657 0)
(-0.0237395 -0.010822 0)
(-0.0198789 -0.013723 0)
(-0.0150349 -0.0158323 0)
(-0.00952759 -0.0162975 0)
(-0.00414658 -0.0137318 0)
(-0.000814754 -0.00640993 0)
(-0.0006493 0.00648042 0)
(-0.00317009 0.0134466 0)
(-0.00718217 0.0160353 0)
(-0.0114149 0.0163098 0)
(-0.0154904 0.0155376 0)
(-0.0193033 0.0142361 0)
(-0.0227766 0.0125576 0)
(-0.0258397 0.010526 0)
(-0.0284191 0.00812693 0)
(-0.0304294 0.00533587 0)
(-0.0317665 0.00213105 0)
(-0.0323039 -0.00149353 0)
(-0.0318853 -0.00551341 0)
(-0.0303374 -0.00982807 0)
(-0.0275003 -0.0142269 0)
(-0.0232825 -0.0183101 0)
(-0.0177576 -0.0213642 0)
(-0.0112908 -0.0221634 0)
(-0.00487984 -0.0187601 0)
(-0.000934954 -0.00878601 0)
(-0.000704328 0.00828916 0)
(-0.00344735 0.0170719 0)
(-0.00781559 0.0202898 0)
(-0.0124198 0.0206129 0)
(-0.0168585 0.0196502 0)
(-0.0210341 0.0180513 0)
(-0.0248799 0.016005 0)
(-0.0283359 0.0135385 0)
(-0.0313373 0.0106274 0)
(-0.0338013 0.00722789 0)
(-0.0356167 0.00329142 0)
(-0.0366364 -0.00122064 0)
(-0.0366512 -0.006326 0)
(-0.0353987 -0.0119372 0)
(-0.0326019 -0.0178205 0)
(-0.0280312 -0.0234548 0)
(-0.0216565 -0.0278356 0)
(-0.0138654 -0.0292052 0)
(-0.0059524 -0.0248389 0)
(-0.00110409 -0.0115983 0)
(-0.000774598 0.0102664 0)
(-0.00379019 0.0210379 0)
(-0.00858558 0.0249363 0)
(-0.0136273 0.0253106 0)
(-0.0184874 0.0241536 0)
(-0.0230805 0.0222623 0)
(-0.0273563 0.0198665 0)
(-0.0312728 0.0169966 0)
(-0.0347831 0.0136148 0)
(-0.0378174 0.00965053 0)
(-0.0402665 0.00501146 0)
(-0.0419766 -0.000403094 0)
(-0.0426808 -0.00665821 0)
(-0.0420026 -0.0137594 0)
(-0.0394977 -0.0214874 0)
(-0.0346995 -0.0292064 0)
(-0.0273466 -0.0355317 0)
(-0.0177507 -0.0379229 0)
(-0.00759037 -0.0324802 0)
(-0.00134954 -0.0150456 0)
(-0.000863359 0.0124529 0)
(-0.00421072 0.0254151 0)
(-0.0095127 0.0300452 0)
(-0.0150589 0.030464 0)
(-0.0203919 0.0291009 0)
(-0.0254452 0.0269201 0)
(-0.0301936 0.0241986 0)
(-0.0346234 0.0209722 0)
(-0.0387191 0.0171893 0)
(-0.042443 0.0127469 0)
(-0.0457138 0.00749574 0)
(-0.0483635 0.00124868 0)
(-0.0501114 -0.00617138 0)
(-0.0504834 -0.0149312 0)
(-0.0487796 -0.0249222 0)
(-0.0441607 -0.0354667 0)
(-0.0358927 -0.0447366 0)
(-0.0239299 -0.0490378 0)
(-0.0103182 -0.0425372 0)
(-0.00175485 -0.0194758 0)
(-0.000976668 0.0148978 0)
(-0.00472776 0.0302851 0)
(-0.010625 0.0356903 0)
(-0.0167401 0.0361279 0)
(-0.022584 0.0345316 0)
(-0.0281192 0.0320571 0)
(-0.0333564 0.0290368 0)
(-0.0383231 0.0255173 0)
(-0.0430523 0.021437 0)
(-0.0475621 0.0166618 0)
(-0.0518289 0.0109794 0)
(-0.0557379 0.00409611 0)
(-0.0590401 -0.00436428 0)
(-0.0611884 -0.0148171 0)
(-0.0612238 -0.0274475 0)
(-0.0577645 -0.0417555 0)
(-0.049178 -0.0555536 0)
(-0.0343961 -0.0635452 0)
(-0.0154356 -0.0565346 0)
(-0.00259046 -0.0256474 0)
(-0.00112658 0.0176664 0)
(-0.00537587 0.0357455 0)
(-0.0119716 0.0419488 0)
(-0.0187154 0.0423469 0)
(-0.0250874 0.0404642 0)
(-0.0310948 0.0376767 0)
(-0.0367976 0.0343823 0)
(-0.0422783 0.0306461 0)
(-0.0476368 0.0264077 0)
(-0.0529768 0.0215135 0)
(-0.0583816 0.0156963 0)
(-0.0638683 0.00853634 0)
(-0.069341 -0.000576171 0)
(-0.074321 -0.0123826 0)
(-0.0776838 -0.0277218 0)
(-0.0773764 -0.0467422 0)
(-0.0702017 -0.067406 0)
(-0.0527682 -0.0825752 0)
(-0.0258915 -0.0772873 0)
(-0.00462616 -0.0354828 0)
(-0.00133659 0.0208541 0)
(-0.00621844 0.0419229 0)
(-0.0136389 0.0489032 0)
(-0.0210633 0.049149 0)
(-0.0279499 0.046886 0)
(-0.0343759 0.0437411 0)
(-0.0404666 0.0401851 0)
(-0.0463706 0.0363121 0)
(-0.0522691 0.0320812 0)
(-0.0583795 0.0273501 0)
(-0.064955 0.0218374 0)
(-0.0722583 0.0150419 0)
(-0.0804617 0.00613645 0)
(-0.0895172 -0.0061055 0)
(-0.0985097 -0.0234496 0)
(-0.104643 -0.0476506 0)
(-0.102257 -0.0781674 0)
(-0.083685 -0.106618 0)
(-0.0467081 -0.109179 0)
(-0.00955509 -0.0532327 0)
(-0.00165215 0.0246131 0)
(-0.00737036 0.0489927 0)
(-0.0157762 0.0566433 0)
(-0.023916 0.0565361 0)
(-0.0312567 0.0537401 0)
(-0.0379881 0.0501566 0)
(-0.0443189 0.0463271 0)
(-0.0504663 0.0423807 0)
(-0.0566915 0.038321 0)
(-0.0633321 0.0340683 0)
(-0.070843 0.0294126 0)
(-0.0798272 0.0238975 0)
(-0.0910131 0.0166047 0)
(-0.105078 0.0057701 0)
(-0.121857 -0.0117145 0)
(-0.138082 -0.0405885 0)
(-0.144541 -0.0842278 0)
(-0.127597 -0.134725 0)
(-0.0812782 -0.156472 0)
(-0.0195575 -0.0852085 0)
(-0.00216188 0.0292015 0)
(-0.00904003 0.0572101 0)
(-0.0186361 0.0652604 0)
(-0.0274844 0.0644627 0)
(-0.0351404 0.0609053 0)
(-0.0419827 0.0567582 0)
(-0.048319 0.0526044 0)
(-0.0544192 0.0486012 0)
(-0.0605931 0.0448186 0)
(-0.0672579 0.0413018 0)
(-0.0750326 0.0380359 0)
(-0.0848488 0.0348036 0)
(-0.0980447 0.0308316 0)
(-0.116308 0.0239561 0)
(-0.140614 0.00897992 0)
(-0.167378 -0.023712 0)
(-0.183544 -0.084134 0)
(-0.170379 -0.166674 0)
(-0.12098 -0.221992 0)
(-0.0336451 -0.14089 0)
(-0.00303983 0.0350836 0)
(-0.0116074 0.0669462 0)
(-0.0226404 0.0748055 0)
(-0.0320799 0.0727831 0)
(-0.0397678 0.0681594 0)
(-0.0463989 0.0632842 0)
(-0.0523803 0.0587052 0)
(-0.0579878 0.0545733 0)
(-0.0635063 0.0510261 0)
(-0.0693201 0.0482788 0)
(-0.0760369 0.0466242 0)
(-0.0846447 0.0462876 0)
(-0.0967151 0.046878 0)
(-0.114622 0.0458093 0)
(-0.140492 0.0351964 0)
(-0.170732 -0.000847448 0)
(-0.191027 -0.0810604 0)
(-0.182531 -0.202446 0)
(-0.142867 -0.305489 0)
(-0.0428774 -0.238108 0)
(-0.00464456 0.0432589 0)
(-0.0157873 0.0789252 0)
(-0.0284752 0.0853661 0)
(-0.0380813 0.0812048 0)
(-0.0452069 0.0751059 0)
(-0.0510199 0.0693012 0)
(-0.0559739 0.0641264 0)
(-0.0602821 0.0596516 0)
(-0.0641207 0.0560466 0)
(-0.0676928 0.0536704 0)
(-0.0713072 0.0531173 0)
(-0.0754726 0.0550678 0)
(-0.0811486 0.0595976 0)
(-0.0903487 0.0637603 0)
(-0.106144 0.0573995 0)
(-0.128116 0.0200228 0)
(-0.145137 -0.0729912 0)
(-0.14287 -0.226826 0)
(-0.12942 -0.384728 0)
(-0.0349753 -0.371379 0)
(-0.00773979 0.055406 0)
(-0.0230508 0.0929326 0)
(-0.037266 0.095273 0)
(-0.0458143 0.0884681 0)
(-0.0507778 0.0808054 0)
(-0.0540376 0.0738812 0)
(-0.0560335 0.0678019 0)
(-0.0569451 0.0625632 0)
(-0.056897 0.0583301 0)
(-0.0559133 0.0554755 0)
(-0.0539133 0.0546826 0)
(-0.0505888 0.056743 0)
(-0.0457757 0.0621846 0)
(-0.0402896 0.0683861 0)
(-0.0373813 0.0656045 0)
(-0.0404767 0.0329247 0)
(-0.0495136 -0.0558657 0)
(-0.0549698 -0.218079 0)
(-0.0796292 -0.416406 0)
(-0.00464779 -0.475779 0)
(-0.0133699 0.0686566 0)
(-0.0353607 0.113752 0)
(-0.0520742 0.109934 0)
(-0.0532954 0.09511 0)
(-0.0492902 0.0832817 0)
(-0.0432366 0.0739101 0)
(-0.0357745 0.0661605 0)
(-0.0273505 0.0596614 0)
(-0.0182857 0.0543703 0)
(-0.00855612 0.0503756 0)
(0.00191745 0.0481476 0)
(0.0140643 0.0482193 0)
(0.0284401 0.0512153 0)
(0.0457839 0.0553437 0)
(0.0632239 0.0541458 0)
(0.077827 0.0306168 0)
(0.0766583 -0.0394048 0)
(0.0709943 -0.178432 0)
(0.00976634 -0.378887 0)
(0.051973 -0.483811 0)
(-0.0808708 0.14278 0)
(-0.0780127 0.120524 0)
(-0.044823 0.0878323 0)
(-0.00998454 0.0724354 0)
(0.0229331 0.062165 0)
(0.0529819 0.0537081 0)
(0.0808074 0.0466796 0)
(0.106686 0.0409594 0)
(0.130424 0.036461 0)
(0.15293 0.032877 0)
(0.173664 0.0304805 0)
(0.194897 0.029226 0)
(0.214704 0.0297144 0)
(0.237546 0.0304765 0)
(0.255627 0.0287933 0)
(0.275807 0.0149032 0)
(0.267269 -0.0267613 0)
(0.260928 -0.112645 0)
(0.174312 -0.267286 0)
(0.161136 -0.378087 0)
(0.182372 0.122936 0)
(0.220395 0.100493 0)
(0.30285 0.0726573 0)
(0.373327 0.0552892 0)
(0.426999 0.0440181 0)
(0.469635 0.0358189 0)
(0.504933 0.0295356 0)
(0.535797 0.0245701 0)
(0.561794 0.0207642 0)
(0.586163 0.0176589 0)
(0.605851 0.0154218 0)
(0.627447 0.0135641 0)
(0.642585 0.0126415 0)
(0.664154 0.0115982 0)
(0.671464 0.01056 0)
(0.686758 0.00598153 0)
(0.661747 -0.00454574 0)
(0.635713 -0.0283279 0)
(0.498795 -0.0705489 0)
(0.369966 -0.127017 0)
)
;

boundaryField
{
    movingWall
    {
        type            fixedValue;
        value           uniform (1 0 0);
    }
    fixedWalls
    {
        type            noSlip;
    }
    frontAndBack
    {
        type            empty;
    }
}


// ************************************************************************* //
