/*--------------------------------*- C++ -*----------------------------------*\
  =========                 |
  \\      /  F ield         | OpenFOAM: The Open Source CFD Toolbox
   \\    /   O peration     | Website:  https://openfoam.org
    \\  /    A nd           | Version:  9
     \\/     M anipulation  |
\*---------------------------------------------------------------------------*/
FoamFile
{
    format      ascii;
    class       volScalarField;
    location    "0.5";
    object      p;
}
// * * * * * * * * * * * * * * * * * * * * * * * * * * * * * * * * * * * * * //

dimensions      [ 0 2 -2 0 0 0 0 ];

internalField   nonuniform List<scalar> 
400
(
-7.91348e-06
-0.0557025
-0.0772302
-0.0596206
-0.00629631
0.0745696
0.174607
0.287461
0.408892
0.536339
0.668257
0.803321
0.939524
1.07314
1.19765
1.30312
1.37652
1.4055
1.38509
1.32279
0.0131563
-0.035156
-0.0484542
-0.0292027
0.0213374
0.0973443
0.192055
0.299957
0.417026
0.540522
0.668497
0.79915
0.930058
1.05732
1.17476
1.27356
1.3428
1.37302
1.36172
1.30787
0.0295426
-0.0201733
-0.0283738
-0.00761137
0.0414729
0.114349
0.205307
0.309493
0.423111
0.543352
0.668041
0.795098
0.921893
1.04453
1.1572
1.25197
1.31919
1.35086
1.34512
1.2897
0.0442511
-0.0127524
-0.0186098
0.00360062
0.0526176
0.124244
0.213254
0.315221
0.426557
0.544489
0.66678
0.791283
0.915378
1.03534
1.14576
1.23927
1.30674
1.34034
1.33724
1.27367
0.0535621
-0.0127441
-0.0170777
0.00701138
0.0571041
0.128858
0.217223
0.318053
0.427954
0.544248
0.664747
0.787376
0.909674
1.02822
1.13805
1.23225
1.30181
1.3384
1.33741
1.26356
0.0543078
-0.0214835
-0.023988
0.00291962
0.0553646
0.128587
0.217518
0.318209
0.427452
0.542719
0.661961
0.783283
0.904512
1.02265
1.13326
1.22989
1.30345
1.3447
1.34665
1.26251
0.0436436
-0.040774
-0.0403037
-0.00907464
0.0473042
0.123471
0.214231
0.315792
0.425151
0.539988
0.65848
0.779019
0.899836
1.01848
1.13116
1.23195
1.31164
1.35983
1.36658
1.27336
0.0187841
-0.0724206
-0.0669005
-0.029177
0.0330832
0.113821
0.207701
0.311107
0.421303
0.536252
0.654441
0.774647
0.895612
1.01556
1.1315
1.23816
1.32637
1.38446
1.39892
1.29906
-0.0233854
-0.118281
-0.104518
-0.0573332
0.0131645
0.100235
0.19851
0.304657
0.41631
0.531813
0.650054
0.770278
0.891836
1.01375
1.134
1.24825
1.3476
1.41931
1.44561
1.34311
-0.0868036
-0.180341
-0.153738
-0.0931977
-0.0116766
0.0835847
0.187458
0.297104
0.410688
0.527058
0.645589
0.766071
0.888539
1.01294
1.13841
1.26188
1.37527
1.46513
1.50887
1.4102
-0.176882
-0.260714
-0.214857
-0.136011
-0.0402767
0.065042
0.175554
0.289246
0.40504
0.522425
0.64135
0.762203
0.885765
1.013
1.14444
1.27867
1.40921
1.52266
1.59124
1.50688
-0.301403
-0.361561
-0.287677
-0.184431
-0.0709951
0.0460986
0.163997
0.281982
0.400013
0.518366
0.637635
0.758836
0.883521
1.01375
1.15166
1.298
1.44892
1.59239
1.6955
1.64249
-0.471814
-0.48485
-0.371152
-0.236317
-0.101628
0.0285648
0.154131
0.276259
0.39625
0.515305
0.634698
0.756071
0.881733
1.01488
1.15943
1.31888
1.49337
1.67415
1.82439
1.83031
-0.705059
-0.631805
-0.462796
-0.288427
-0.129326
0.0145369
0.147375
0.272992
0.394322
0.513579
0.632703
0.753905
0.88019
1.01587
1.1668
1.33973
1.54053
1.76646
1.98001
2.08915
-1.02563
-0.801861
-0.557915
-0.336144
-0.150587
0.00629463
0.145102
0.272967
0.394657
0.513388
0.631684
0.752201
0.878515
1.01595
1.17235
1.3582
1.58702
1.86559
2.16255
2.44467
-1.46623
-0.991
-0.649137
-0.3736
-0.161546
0.0060191
0.148422
0.276701
0.397451
0.514751
0.631525
0.750687
0.876184
1.01416
1.17429
1.37115
1.62792
1.9649
2.36839
2.92899
-2.06806
-1.1887
-0.724648
-0.39349
-0.158268
0.0154995
0.157978
0.284312
0.402607
0.517479
0.631966
0.748985
0.87257
1.00935
1.17046
1.37458
1.65617
2.05293
2.58754
3.5824
-2.8997
-1.36787
-0.755435
-0.381964
-0.134904
0.0370048
0.174446
0.295838
0.409932
0.521282
0.632631
0.746541
0.866745
0.999784
1.15743
1.36148
1.65717
2.10192
2.79589
4.47866
-4.09317
-1.45666
-0.677926
-0.311021
-0.0805925
0.0749484
0.199631
0.311961
0.419596
0.52604
0.633124
0.742558
0.857198
0.982595
1.12949
1.3196
1.60184
2.04947
2.92902
5.75636
-5.6046
-1.35524
-0.46823
-0.179192
0.000644616
0.125375
0.230753
0.330888
0.430509
0.531165
0.633262
0.737257
0.844646
0.959183
1.08887
1.25107
1.4867
1.86799
2.87874
7.33753
)
;

boundaryField
{
    movingWall
    {
        type            zeroGradient;
    }
    fixedWalls
    {
        type            zeroGradient;
    }
    frontAndBack
    {
        type            empty;
    }
}


// ************************************************************************* //
