/*--------------------------------*- C++ -*----------------------------------*\
  =========                 |
  \\      /  F ield         | OpenFOAM: The Open Source CFD Toolbox
   \\    /   O peration     | Website:  https://openfoam.org
    \\  /    A nd           | Version:  7
     \\/     M anipulation  |
\*---------------------------------------------------------------------------*/
FoamFile
{
    version     2.0;
    format      ascii;
    class       volScalarField;
    location    "0.4";
    object      p;
}
// * * * * * * * * * * * * * * * * * * * * * * * * * * * * * * * * * * * * * //

dimensions      [0 2 -2 0 0 0 0];

internalField   nonuniform List<scalar> 
400
(
2.56942e-09
-1.7451e-06
-1.98237e-06
-6.02593e-07
2.43107e-06
7.06607e-06
1.31296e-05
2.03669e-05
2.84741e-05
3.71151e-05
4.59334e-05
5.45643e-05
6.26476e-05
6.98411e-05
7.58345e-05
8.03705e-05
8.32809e-05
8.45296e-05
8.41819e-05
8.2368e-05
2.69389e-06
9.03715e-08
-3.19838e-07
1.10769e-06
4.11735e-06
8.60979e-06
1.44314e-05
2.13519e-05
2.90905e-05
3.73316e-05
4.5737e-05
5.39593e-05
6.16563e-05
6.85059e-05
7.42212e-05
7.85704e-05
8.14076e-05
8.26553e-05
8.20955e-05
7.94079e-05
-3.10796e-06
-6.71424e-06
-7.4572e-06
-5.88284e-06
-2.39527e-06
2.85516e-06
9.67491e-06
1.77865e-05
2.68568e-05
3.65145e-05
4.63623e-05
5.59897e-05
6.49923e-05
7.29875e-05
7.96317e-05
8.46443e-05
8.78447e-05
8.91185e-05
8.81238e-05
8.43729e-05
-1.67459e-05
-2.14718e-05
-2.24326e-05
-2.03583e-05
-1.57924e-05
-8.94238e-06
-6.52912e-08
1.04781e-05
2.22581e-05
3.47957e-05
4.75768e-05
6.00672e-05
7.17384e-05
8.20882e-05
9.06644e-05
9.70983e-05
0.000101155
0.000102692
0.000101275
9.62716e-05
-4.0631e-05
-4.69573e-05
-4.81069e-05
-4.50799e-05
-3.86296e-05
-2.90497e-05
-1.66941e-05
-2.05231e-06
1.4293e-05
3.16891e-05
4.94301e-05
6.67749e-05
8.29833e-05
9.73481e-05
0.000109231
0.000118116
0.00012368
0.000125747
0.000123761
0.000116895
-7.87463e-05
-8.73831e-05
-8.86973e-05
-8.41053e-05
-7.46827e-05
-6.08512e-05
-4.31016e-05
-2.2105e-05
1.33622e-06
2.63129e-05
5.18291e-05
7.68214e-05
0.000100207
0.000120942
0.00013808
0.000150856
0.00015881
0.000161723
0.00015888
0.000149187
-0.000137374
-0.000149265
-0.000150689
-0.00014369
-0.000129819
-0.000109679
-8.39334e-05
-5.34885e-05
-1.9438e-05
1.69533e-05
5.4272e-05
9.0974e-05
0.000125421
0.000156021
0.000181307
0.000200093
0.000211686
0.000215828
0.000211628
0.000197665
-0.000226021
-0.000242394
-0.000243835
-0.000233302
-0.000213038
-0.000183869
-0.000146654
-0.000102557
-5.30219e-05
2.27817e-07
5.51991e-05
0.000109667
0.000161083
0.000206934
0.000244854
0.0002729
0.000289964
0.000295764
0.000289306
0.000268844
-0.00035871
-0.00038113
-0.000382474
-0.000367025
-0.000337981
-0.000296412
-0.000243321
-0.000180078
-0.000108449
-3.06998e-05
5.0389e-05
0.000131757
0.000209326
0.000279026
0.000336845
0.000379384
0.000404696
0.000412508
0.000402031
0.000371447
-0.000555606
-0.000586023
-0.000587269
-0.000565501
-0.000525188
-0.000467593
-0.000393666
-0.000304748
-0.000202736
-9.04827e-05
2.81768e-05
0.000150792
0.000269338
0.000377196
0.00046732
0.000533317
0.000571327
0.000581048
0.000562816
0.000515779
-0.000844805
-0.000885584
-0.000887189
-0.000858354
-0.000805151
-0.000728808
-0.000629746
-0.00050868
-0.000366954
-0.000206932
-3.24669e-05
0.000149515
0.000331499
0.000501478
0.000645998
0.000751986
0.000810632
0.000820866
0.000786421
0.000710688
-0.00126359
-0.00131754
-0.0013212
-0.00128675
-0.00122218
-0.00112827
-0.00100405
-0.000848411
-0.000660621
-0.000441246
-0.000193521
7.53596e-05
0.000356512
0.000630005
0.000870852
0.001051
0.00114788
0.00115543
0.00108513
0.0009536
-0.00185763
-0.00192812
-0.00193811
-0.00190431
-0.00183701
-0.00173609
-0.00159811
-0.0014184
-0.00119162
-0.000913158
-0.000582273
-0.00020352
0.000222897
0.00066856
0.00108709
0.00141731
0.00159822
0.00160217
0.00145293
0.00119894
-0.0026753
-0.00276584
-0.0027898
-0.00276993
-0.00271997
-0.00263933
-0.00252177
-0.00235798
-0.00213596
-0.00184105
-0.001457
-0.000974939
-0.000403759
0.000294408
0.00103192
0.00168495
0.00208873
0.0021328
0.00183433
0.00127687
-0.00375988
-0.00387512
-0.00392755
-0.00394859
-0.00395644
-0.00395165
-0.00392829
-0.00387642
-0.00378128
-0.00362145
-0.00336443
-0.00296069
-0.00235212
-0.00151592
-0.000357798
0.000929071
0.00199578
0.00244106
0.00204718
0.000813843
-0.00512169
-0.00526812
-0.0053421
-0.00539879
-0.00548022
-0.00560222
-0.00576959
-0.00598419
-0.00624888
-0.00657065
-0.0069559
-0.00737467
-0.00766993
-0.00751866
-0.00665368
-0.00472642
-0.00201249
0.000351595
0.000961033
-0.000642849
-0.00667218
-0.0068317
-0.00697807
-0.00715362
-0.00740494
-0.00776011
-0.00825258
-0.00893399
-0.00988145
-0.0112151
-0.0131036
-0.0156913
-0.0188415
-0.0217231
-0.0227529
-0.0209354
-0.0160862
-0.00957584
-0.00468149
-0.00339961
-0.00972583
-0.0094769
-0.00903405
-0.00880561
-0.00881766
-0.00912849
-0.00979835
-0.0108996
-0.0125583
-0.0149908
-0.0185104
-0.0233775
-0.0295131
-0.0360005
-0.0404016
-0.0406912
-0.0353626
-0.0243963
-0.012145
-0.00402484
-0.00660384
-0.00825472
-0.00944237
-0.0100523
-0.0103604
-0.0106751
-0.0112139
-0.0121919
-0.0138655
-0.016545
-0.0206529
-0.0263523
-0.0333799
-0.0404582
-0.0450991
-0.0429167
-0.0319473
-0.0113785
0.0135957
0.0393847
-0.0382712
-0.0188234
-0.0120552
-0.0096113
-0.00823027
-0.00743265
-0.00729809
-0.00793389
-0.00946585
-0.0120107
-0.0156009
-0.0198678
-0.0238959
-0.0257483
-0.0228041
-0.0113581
0.0133649
0.0538473
0.106525
0.160803
)
;

boundaryField
{
    movingWall
    {
        type            zeroGradient;
    }
    fixedWalls
    {
        type            zeroGradient;
    }
    frontAndBack
    {
        type            empty;
    }
}


// ************************************************************************* //
