/*--------------------------------*- C++ -*----------------------------------*\
  =========                 |
  \\      /  F ield         | OpenFOAM: The Open Source CFD Toolbox
   \\    /   O peration     | Website:  https://openfoam.org
    \\  /    A nd           | Version:  7
     \\/     M anipulation  |
\*---------------------------------------------------------------------------*/
FoamFile
{
    version     2.0;
    format      ascii;
    class       surfaceScalarField;
    location    "0.4";
    object      phi;
}
// * * * * * * * * * * * * * * * * * * * * * * * * * * * * * * * * * * * * * //

dimensions      [0 3 -1 0 0 0 0];

internalField   nonuniform List<scalar> 
760
(
-1.6888e-09
1.68852e-09
-6.61521e-09
4.92635e-09
-1.35979e-08
6.98261e-09
-2.13759e-08
7.7779e-09
-2.90023e-08
7.62625e-09
-3.58505e-08
6.84811e-09
-4.15199e-08
5.66943e-09
-4.5751e-08
4.23103e-09
-4.83743e-08
2.62339e-09
-4.92889e-08
9.14684e-10
-4.8455e-08
-8.33697e-10
-4.58945e-08
-2.56028e-09
-4.16943e-08
-4.19992e-09
-3.60168e-08
-5.67726e-09
-2.91246e-08
-6.89204e-09
-2.14321e-08
-7.69245e-09
-1.35891e-08
-7.84305e-09
-6.56951e-09
-7.01974e-09
-1.65163e-09
-4.91808e-09
-1.6518e-09
-4.37756e-09
6.06604e-09
-1.42379e-08
1.47865e-08
-2.70526e-08
1.97972e-08
-4.08499e-08
2.15751e-08
-5.4201e-08
2.09773e-08
-6.61373e-08
1.87844e-08
-7.60106e-08
1.55428e-08
-8.33809e-08
1.16015e-08
-8.79524e-08
7.19515e-09
-8.95459e-08
2.5086e-09
-8.80918e-08
-2.28736e-09
-8.36294e-08
-7.0222e-09
-7.63138e-08
-1.1515e-08
-6.64292e-08
-1.55616e-08
-5.44201e-08
-1.8901e-08
-4.09577e-08
-2.1155e-08
-2.70495e-08
-2.17515e-08
-1.41691e-08
-1.99005e-08
-4.31776e-09
-1.47697e-08
-5.96931e-09
-5.77712e-09
1.18431e-08
-1.88336e-08
2.78429e-08
-3.56958e-08
3.66593e-08
-5.37262e-08
3.96055e-08
-7.1096e-08
3.83471e-08
-8.65915e-08
3.42798e-08
-9.94041e-08
2.83555e-08
-1.08981e-07
2.11782e-08
-1.14943e-07
1.31578e-08
-1.17057e-07
4.62279e-09
-1.15222e-07
-4.12164e-09
-1.09482e-07
-1.27626e-08
-1.00024e-07
-2.09731e-08
-8.7202e-08
-2.83831e-08
-7.1577e-08
-3.45259e-08
-5.39981e-08
-3.8734e-08
-3.57498e-08
-3.99999e-08
-1.87451e-08
-3.69052e-08
-5.68208e-09
-2.78328e-08
-1.16513e-08
-7.51592e-09
1.93589e-08
-2.45347e-08
4.48616e-08
-4.64896e-08
5.86143e-08
-6.9936e-08
6.30518e-08
-9.25117e-08
6.09229e-08
-1.12665e-07
5.44335e-08
-1.29365e-07
4.50554e-08
-1.41899e-07
3.37117e-08
-1.49768e-07
2.10274e-08
-1.52653e-07
7.50781e-09
-1.50401e-07
-6.37369e-09
-1.43042e-07
-2.01215e-08
-1.30799e-07
-3.32157e-08
-1.14118e-07
-4.50646e-08
-9.37192e-08
-5.49245e-08
-7.07135e-08
-6.17395e-08
-4.67929e-08
-6.39203e-08
-2.44903e-08
-5.92076e-08
-7.38251e-09
-4.49405e-08
-1.9034e-08
-1.01927e-08
2.95516e-08
-3.31663e-08
6.78352e-08
-6.27281e-08
8.81761e-08
-9.42637e-08
9.45875e-08
-1.24642e-07
9.13012e-08
-1.51818e-07
8.16093e-08
-1.74426e-07
6.76637e-08
-1.91508e-07
5.07936e-08
-2.02373e-07
3.18929e-08
-2.06553e-07
1.16883e-08
-2.03795e-07
-9.13179e-09
-1.9409e-07
-2.98268e-08
-1.77697e-07
-4.96086e-08
-1.55191e-07
-6.75715e-08
-1.27539e-07
-8.25759e-08
-9.62634e-08
-9.30156e-08
-6.3693e-08
-9.64907e-08
-3.33124e-08
-8.95881e-08
-1.0024e-08
-6.82288e-08
-2.9058e-08
-1.42107e-08
4.37624e-08
-4.60034e-08
9.96279e-08
-8.6764e-08
1.28937e-07
-1.30192e-07
1.38015e-07
-1.72067e-07
1.33177e-07
-2.09651e-07
1.19193e-07
-2.41102e-07
9.91147e-08
-2.65095e-07
7.47866e-08
-2.80637e-07
4.74345e-08
-2.87009e-07
1.80608e-08
-2.83768e-07
-1.23733e-08
-2.70797e-07
-4.27982e-08
-2.48374e-07
-7.20317e-08
-2.17237e-07
-9.8708e-08
-1.7872e-07
-1.21093e-07
-1.34973e-07
-1.36764e-07
-8.93145e-08
-1.42149e-07
-4.66961e-08
-1.32207e-07
-1.40383e-08
-1.00887e-07
-4.3096e-08
-2.00511e-08
6.38135e-08
-6.45282e-08
1.44105e-07
-1.21321e-07
1.8573e-07
-1.81768e-07
1.98463e-07
-2.40165e-07
1.91574e-07
-2.92834e-07
1.71862e-07
-3.37277e-07
1.43559e-07
-3.71641e-07
1.09151e-07
-3.94462e-07
7.02547e-08
-4.04601e-07
2.81994e-08
-4.01254e-07
-1.57202e-08
-3.84032e-07
-6.00209e-08
-3.53156e-07
-1.02907e-07
-3.09542e-07
-1.42322e-07
-2.55032e-07
-1.75602e-07
-1.92736e-07
-1.9906e-07
-1.27521e-07
-2.07365e-07
-6.66082e-08
-1.93119e-07
-1.9986e-08
-1.47509e-07
-6.30819e-08
-2.83411e-08
9.21546e-08
-9.06449e-08
2.06409e-07
-1.69884e-07
2.64969e-07
-2.54189e-07
2.82767e-07
-3.35896e-07
2.73281e-07
-4.10114e-07
2.46081e-07
-4.7348e-07
2.06924e-07
-5.23388e-07
1.59059e-07
-5.57648e-07
1.04515e-07
-5.74412e-07
4.49642e-08
-5.72221e-07
-1.79121e-08
-5.50009e-07
-8.22328e-08
-5.07734e-07
-1.45183e-07
-4.46408e-07
-2.03649e-07
-3.68543e-07
-2.53467e-07
-2.78715e-07
-2.88888e-07
-1.8426e-07
-3.0182e-07
-9.6013e-08
-2.81366e-07
-2.86761e-08
-2.14845e-07
-9.17582e-08
-3.98519e-08
1.32006e-07
-1.2667e-07
2.93227e-07
-2.36687e-07
3.74986e-07
-3.53806e-07
3.99885e-07
-4.67893e-07
3.87369e-07
-5.7257e-07
3.50757e-07
-6.63383e-07
2.97737e-07
-7.36702e-07
2.32377e-07
-7.89226e-07
1.57038e-07
-8.17915e-07
7.36538e-08
-8.20215e-07
-1.56123e-08
-7.93384e-07
-1.09063e-07
-7.36621e-07
-2.01946e-07
-6.50671e-07
-2.89599e-07
-5.38791e-07
-3.65347e-07
-4.07781e-07
-4.19898e-07
-2.69066e-07
-4.40535e-07
-1.39495e-07
-4.10937e-07
-4.12606e-08
-3.1308e-07
-1.33019e-07
-5.54176e-08
1.87424e-07
-1.75103e-07
4.12913e-07
-3.26321e-07
5.26204e-07
-4.87612e-07
5.61176e-07
-6.459e-07
5.45657e-07
-7.93136e-07
4.97992e-07
-9.23611e-07
4.28213e-07
-1.03237e-06
3.41137e-07
-1.11448e-06
2.39146e-07
-1.16481e-06
1.23987e-07
-1.18025e-06
-1.76992e-10
-1.15223e-06
-1.37084e-07
-1.0792e-06
-2.7498e-07
-9.60282e-07
-4.08512e-07
-7.99044e-07
-5.26585e-07
-6.05501e-07
-6.13442e-07
-3.98095e-07
-6.4794e-07
-2.04415e-07
-6.04617e-07
-5.93337e-08
-4.58162e-07
-1.92352e-07
-7.57241e-08
2.63148e-07
-2.38037e-07
5.75226e-07
-4.42729e-07
7.30896e-07
-6.61861e-07
7.80308e-07
-8.7915e-07
7.62947e-07
-1.08498e-06
7.0382e-07
-1.27251e-06
6.15746e-07
-1.43539e-06
5.04012e-07
-1.5666e-06
3.70359e-07
-1.6582e-06
2.1559e-07
-1.70034e-06
4.19619e-08
-1.68459e-06
-1.52834e-07
-1.60016e-06
-3.59415e-07
-1.44153e-06
-5.67133e-07
-1.21023e-06
-7.57885e-07
-9.20053e-07
-9.03623e-07
-6.01705e-07
-9.66287e-07
-3.03719e-07
-9.02603e-07
-8.5048e-08
-6.76834e-07
-2.77401e-07
-1.00892e-07
3.6404e-07
-3.16023e-07
7.90357e-07
-5.87209e-07
1.00208e-06
-8.79128e-07
1.07223e-06
-1.17245e-06
1.05627e-06
-1.45665e-06
9.88022e-07
-1.72451e-06
8.83604e-07
-1.96875e-06
7.48255e-07
-2.18026e-06
5.81864e-07
-2.3471e-06
3.82426e-07
-2.45396e-06
1.4883e-07
-2.48419e-06
-1.2261e-07
-2.41216e-06
-4.31439e-07
-2.21904e-06
-7.60259e-07
-1.89536e-06
-1.08156e-06
-1.45448e-06
-1.34451e-06
-9.46865e-07
-1.4739e-06
-4.6505e-07
-1.38442e-06
-1.21643e-07
-1.02024e-06
-3.99044e-07
-1.299e-07
4.9394e-07
-4.06505e-07
1.06696e-06
-7.55581e-07
1.35116e-06
-1.13393e-06
1.45057e-06
-1.52003e-06
1.44237e-06
-1.90414e-06
1.37214e-06
-2.28073e-06
1.26019e-06
-2.64379e-06
1.11131e-06
-2.98403e-06
9.22104e-07
-3.28657e-06
6.84973e-07
-3.52854e-06
3.90799e-07
-3.69085e-06
3.97028e-08
-3.70787e-06
-4.14419e-07
-3.53137e-06
-9.36765e-07
-3.11448e-06
-1.49844e-06
-2.44724e-06
-2.01175e-06
-1.60215e-06
-2.31899e-06
-7.63673e-07
-2.2229e-06
-1.78565e-07
-1.60535e-06
-5.7761e-07
-1.60461e-07
6.54401e-07
-5.03044e-07
1.40954e-06
-9.36056e-07
1.78417e-06
-1.40811e-06
1.92263e-06
-1.89728e-06
1.93153e-06
-2.39803e-06
1.87289e-06
-2.91115e-06
1.77331e-06
-3.43767e-06
1.63782e-06
-3.9748e-06
1.45924e-06
-4.51174e-06
1.22192e-06
-5.02341e-06
9.02469e-07
-5.45518e-06
4.7147e-07
-5.76697e-06
-1.02624e-07
-5.78249e-06
-9.21247e-07
-5.36238e-06
-1.91855e-06
-4.40485e-06
-2.96928e-06
-2.97805e-06
-3.74579e-06
-1.4223e-06
-3.77865e-06
-2.97347e-07
-2.7303e-06
-8.74957e-07
-1.88163e-07
8.42565e-07
-5.92173e-07
1.81355e-06
-1.1022e-06
2.2942e-06
-1.66069e-06
2.48112e-06
-2.24661e-06
2.51745e-06
-2.86131e-06
2.48759e-06
-3.51784e-06
2.42984e-06
-4.23442e-06
2.35441e-06
-5.02987e-06
2.25468e-06
-5.91707e-06
2.10912e-06
-6.88859e-06
1.87399e-06
-7.88638e-06
1.46926e-06
-8.7637e-06
7.74694e-07
-9.32061e-06
-3.6434e-07
-9.13326e-06
-2.1059e-06
-7.95108e-06
-4.15147e-06
-5.75447e-06
-5.9424e-06
-2.98582e-06
-6.54729e-06
-6.74471e-07
-5.04166e-06
-1.54943e-06
-2.25526e-07
1.06809e-06
-7.10905e-07
2.29893e-06
-1.29623e-06
2.87953e-06
-1.90357e-06
3.08846e-06
-2.52462e-06
3.1385e-06
-3.18456e-06
3.14753e-06
-3.92079e-06
3.16607e-06
-4.77868e-06
3.2123e-06
-5.81036e-06
3.28636e-06
-7.06563e-06
3.36439e-06
-8.56354e-06
3.3719e-06
-1.02387e-05
3.1444e-06
-1.18659e-05
2.4019e-06
-1.30115e-05
7.81269e-07
-1.33616e-05
-1.75578e-06
-1.24467e-05
-5.06641e-06
-9.98437e-06
-8.4047e-06
-6.13512e-06
-1.03966e-05
-1.97834e-06
-9.19843e-06
-3.52777e-06
-2.11635e-07
1.27973e-06
-6.73054e-07
2.76035e-06
-1.28128e-06
3.48775e-06
-1.91837e-06
3.72555e-06
-2.54068e-06
3.76081e-06
-3.15791e-06
3.76477e-06
-3.81136e-06
3.81952e-06
-4.56353e-06
3.96447e-06
-5.48782e-06
4.21065e-06
-6.65234e-06
4.52891e-06
-8.08386e-06
4.80343e-06
-9.72785e-06
4.78838e-06
-1.14288e-05
4.10287e-06
-1.29523e-05
2.3048e-06
-1.38147e-05
-8.9341e-07
-1.39338e-05
-4.94733e-06
-1.27653e-05
-9.57318e-06
-9.67801e-06
-1.34838e-05
-4.57309e-06
-1.43034e-05
-8.10086e-06
-7.10925e-07
1.99065e-06
-1.2541e-06
3.30352e-06
-1.5614e-06
3.79506e-06
-1.94943e-06
4.11358e-06
-2.35104e-06
4.16242e-06
-2.69768e-06
4.1114e-06
-2.95682e-06
4.07866e-06
-3.12191e-06
4.12956e-06
-3.20124e-06
4.28998e-06
-3.20246e-06
4.53013e-06
-3.17647e-06
4.77743e-06
-3.20287e-06
4.81478e-06
-3.4211e-06
4.3211e-06
-4.02374e-06
2.90744e-06
-4.9812e-06
6.40447e-08
-6.49383e-06
-3.4347e-06
-7.9998e-06
-8.06721e-06
-8.2979e-06
-1.31857e-05
-5.74743e-06
-1.68538e-05
-1.38483e-05
-3.33073e-06
5.32138e-06
-5.57153e-06
5.54433e-06
-6.36776e-06
4.59129e-06
-6.11949e-06
3.86531e-06
-5.35267e-06
3.3956e-06
-4.28356e-06
3.04229e-06
-2.99096e-06
2.78606e-06
-1.4868e-06
2.6254e-06
2.5824e-07
2.54494e-06
2.25897e-06
2.52941e-06
4.53525e-06
2.50115e-06
6.97733e-06
2.3727e-06
9.29439e-06
2.00404e-06
1.09063e-05
1.29551e-06
1.07374e-05
2.32952e-07
9.49304e-06
-2.19033e-06
6.73575e-06
-5.30992e-06
2.88713e-06
-9.33712e-06
-6.32471e-07
-1.33342e-05
-1.44808e-05
5.32138e-06
1.08657e-05
1.5457e-05
1.93223e-05
2.27179e-05
2.57602e-05
2.85463e-05
3.11717e-05
3.37166e-05
3.6246e-05
3.87471e-05
4.11198e-05
4.31239e-05
4.44194e-05
4.46524e-05
4.2462e-05
3.71521e-05
2.7815e-05
1.44808e-05
)
;

boundaryField
{
    movingWall
    {
        type            calculated;
        value           uniform 0;
    }
    fixedWalls
    {
        type            calculated;
        value           uniform 0;
    }
    frontAndBack
    {
        type            empty;
        value           nonuniform 0();
    }
}


// ************************************************************************* //
