/*--------------------------------*- C++ -*----------------------------------*\
  =========                 |
  \\      /  F ield         | OpenFOAM: The Open Source CFD Toolbox
   \\    /   O peration     | Website:  https://openfoam.org
    \\  /    A nd           | Version:  7
     \\/     M anipulation  |
\*---------------------------------------------------------------------------*/
FoamFile
{
    version     2.0;
    format      ascii;
    class       volVectorField;
    location    "0.4";
    object      U;
}
// * * * * * * * * * * * * * * * * * * * * * * * * * * * * * * * * * * * * * //

dimensions      [0 1 -1 0 0 0 0];

internalField   nonuniform List<vector> 
400
(
(-4.38298e-06 9.41544e-06 0)
(-3.49244e-05 3.4675e-05 0)
(-9.7721e-05 5.23324e-05 0)
(-0.000174292 5.97582e-05 0)
(-0.000252959 5.91645e-05 0)
(-0.000326343 5.33093e-05 0)
(-0.000389593 4.41805e-05 0)
(-0.000439531 3.2991e-05 0)
(-0.000474077 2.04844e-05 0)
(-0.000491909 7.19561e-06 0)
(-0.000492329 -6.40478e-06 0)
(-0.000475246 -1.98479e-05 0)
(-0.000441189 -3.26311e-05 0)
(-0.000391371 -4.41585e-05 0)
(-0.000327849 -5.36028e-05 0)
(-0.000253885 -5.96582e-05 0)
(-0.000174523 -6.02553e-05 0)
(-9.74012e-05 -5.26038e-05 0)
(-3.44106e-05 -3.45727e-05 0)
(-4.13717e-06 -9.08061e-06 0)
(-1.54004e-05 6.77626e-05 0)
(-8.2213e-05 0.000176864 0)
(-0.000200871 0.000242856 0)
(-0.000338961 0.000267562 0)
(-0.00047758 0.000261343 0)
(-0.000605735 0.00023442 0)
(-0.000715945 0.000194054 0)
(-0.000802963 0.000144842 0)
(-0.000863188 8.98144e-05 0)
(-0.000894282 3.13066e-05 0)
(-0.000895011 -2.85557e-05 0)
(-0.000865216 -8.76428e-05 0)
(-0.000805849 -0.000143706 0)
(-0.00071906 -0.000194176 0)
(-0.000608406 -0.000235702 0)
(-0.000479274 -0.000263332 0)
(-0.000339469 -0.000269503 0)
(-0.000200419 -0.000243881 0)
(-8.14035e-05 -0.000176428 0)
(-1.50111e-05 -6.64246e-05 0)
(-2.02517e-05 0.000173615 0)
(-0.000108713 0.000412759 0)
(-0.000265469 0.000546616 0)
(-0.000446579 0.000592529 0)
(-0.000627276 0.000574704 0)
(-0.000793771 0.000514115 0)
(-0.000936785 0.000425279 0)
(-0.00104976 0.000317473 0)
(-0.00112813 0.000196988 0)
(-0.00116888 6.88355e-05 0)
(-0.00117034 -6.23387e-05 0)
(-0.00113221 -0.000191853 0)
(-0.00105562 -0.000314773 0)
(-0.000943213 -0.000425545 0)
(-0.000799467 -0.000517133 0)
(-0.000631175 -0.000579435 0)
(-0.000448194 -0.000597218 0)
(-0.000265124 -0.00054924 0)
(-0.000107477 -0.000411984 0)
(-1.96003e-05 -0.000170626 0)
(-2.62966e-05 0.000303892 0)
(-0.000141562 0.000706968 0)
(-0.000345833 0.000926026 0)
(-0.000581476 0.000997782 0)
(-0.000816336 0.000964849 0)
(-0.00103275 0.000862135 0)
(-0.00121891 0.000713218 0)
(-0.00136642 0.000533005 0)
(-0.00146934 0.000331622 0)
(-0.00152363 0.000117222 0)
(-0.00152693 -0.000102546 0)
(-0.0014786 -0.000319893 0)
(-0.00137986 -0.000526558 0)
(-0.00123396 -0.000713243 0)
(-0.0010466 -0.000868258 0)
(-0.000826598 -0.000974948 0)
(-0.000586905 -0.00100821 0)
(-0.0003468 -0.000932505 0)
(-0.000140024 -0.000706499 0)
(-2.52603e-05 -0.000298446 0)
(-3.58363e-05 0.000476764 0)
(-0.000191766 0.00109672 0)
(-0.000467071 0.0014279 0)
(-0.000784079 0.00153335 0)
(-0.00109993 0.00148055 0)
(-0.00139136 0.00132285 0)
(-0.0016428 0.00109557 0)
(-0.00184307 0.000820744 0)
(-0.00198409 0.000513258 0)
(-0.00206011 0.000185184 0)
(-0.00206751 -0.000151997 0)
(-0.00200492 -0.000486418 0)
(-0.00187352 -0.000805317 0)
(-0.00167735 -0.00109423 0)
(-0.00142391 -0.00133501 0)
(-0.00112521 -0.00150197 0)
(-0.000799043 -0.00155658 0)
(-0.000471996 -0.00144399 0)
(-0.000190321 -0.001099 0)
(-3.42184e-05 -0.000467946 0)
(-5.03441e-05 0.000715148 0)
(-0.000266839 0.00163082 0)
(-0.000646919 0.0021134 0)
(-0.00108354 0.00226399 0)
(-0.00151851 0.00218456 0)
(-0.00192072 0.00195345 0)
(-0.00226932 0.00162143 0)
(-0.0025491 0.00121963 0)
(-0.00274866 0.000768906 0)
(-0.0028595 0.000286254 0)
(-0.00287576 -0.00021189 0)
(-0.00279453 -0.00070816 0)
(-0.00261647 -0.00118342 0)
(-0.00234644 -0.0016157 0)
(-0.0019945 -0.0019774 0)
(-0.00157744 -0.00222976 0)
(-0.00112062 -0.00231522 0)
(-0.000661916 -0.00215204 0)
(-0.000266725 -0.00164221 0)
(-4.78729e-05 -0.000702152 0)
(-7.16425e-05 0.00105019 0)
(-0.000375632 0.00237543 0)
(-0.000905914 0.00306538 0)
(-0.00151361 0.00327745 0)
(-0.00211927 0.00316241 0)
(-0.00268121 0.0028328 0)
(-0.00317149 0.00235979 0)
(-0.00356918 0.00178604 0)
(-0.00385795 0.00113965 0)
(-0.00402486 0.000443616 0)
(-0.00406008 -0.000279311 0)
(-0.00395742 -0.00100436 0)
(-0.00371573 -0.00170312 0)
(-0.00334035 -0.00234232 0)
(-0.00284457 -0.00287987 0)
(-0.00225226 -0.00325727 0)
(-0.00160052 -0.00338899 0)
(-0.000944932 -0.00315497 0)
(-0.000380169 -0.00241122 0)
(-6.79818e-05 -0.00103313 0)
(-0.000102146 0.00152411 0)
(-0.000529588 0.00341955 0)
(-0.00127034 0.00439494 0)
(-0.00211747 0.00469181 0)
(-0.00296294 0.00453044 0)
(-0.00375143 0.00407022 0)
(-0.00444581 0.00340904 0)
(-0.00501742 0.00260362 0)
(-0.00544263 0.00169026 0)
(-0.00570135 0.000698769 0)
(-0.00577681 -0.000340504 0)
(-0.00565594 -0.00139335 0)
(-0.00533256 -0.00241761 0)
(-0.00481086 -0.00336247 0)
(-0.00410765 -0.00416278 0)
(-0.00325699 -0.00472877 0)
(-0.00231454 -0.00493222 0)
(-0.00136436 -0.00459708 0)
(-0.000546754 -0.00351491 0)
(-9.68886e-05 -0.00150607 0)
(-0.000144851 0.00219325 0)
(-0.000742677 0.00488063 0)
(-0.00177209 0.00624844 0)
(-0.00294768 0.00666365 0)
(-0.00412418 0.00644543 0)
(-0.00522967 0.00581701 0)
(-0.00621589 0.00491052 0)
(-0.00704407 0.00379877 0)
(-0.00767999 0.00252611 0)
(-0.00809222 0.00112882 0)
(-0.00825247 -0.000355021 0)
(-0.00813336 -0.00188178 0)
(-0.0077157 -0.00338776 0)
(-0.00699802 -0.0047946 0)
(-0.00599883 -0.00599907 0)
(-0.00476609 -0.0068593 0)
(-0.00338536 -0.00717846 0)
(-0.0019887 -0.00669621 0)
(-0.000790333 -0.00511435 0)
(-0.000137388 -0.00218471 0)
(-0.000202992 0.00313036 0)
(-0.0010299 0.00690912 0)
(-0.00244551 0.00881336 0)
(-0.00406146 0.0093957 0)
(-0.00568597 0.00911506 0)
(-0.00722851 0.00828071 0)
(-0.00862867 0.00706728 0)
(-0.00983542 0.00556382 0)
(-0.0107997 0.00381909 0)
(-0.0114731 0.0018708 0)
(-0.0118121 -0.000237595 0)
(-0.0117577 -0.00244482 0)
(-0.0112573 -0.00466927 0)
(-0.0102946 -0.0067901 0)
(-0.00888085 -0.00863798 0)
(-0.00707922 -0.0099783 0)
(-0.0050236 -0.0104953 0)
(-0.00293187 -0.00979467 0)
(-0.00114648 -0.00745491 0)
(-0.000191843 -0.00315844 0)
(-0.000279119 0.00442425 0)
(-0.00140351 0.00968792 0)
(-0.00331951 0.0123188 0)
(-0.00550865 0.01314 0)
(-0.00772427 0.0128062 0)
(-0.00985795 0.0117414 0)
(-0.0118392 0.0101713 0)
(-0.0136056 0.00819794 0)
(-0.0150919 0.00586535 0)
(-0.0162233 0.00320155 0)
(-0.0169109 0.000244602 0)
(-0.0170629 -0.00293906 0)
(-0.0165772 -0.00625065 0)
(-0.0153671 -0.00950689 0)
(-0.0134045 -0.0124263 0)
(-0.010756 -0.0146015 0)
(-0.0076291 -0.0154906 0)
(-0.00440419 -0.0144621 0)
(-0.00167085 -0.0109267 0)
(-0.000258914 -0.00454944 0)
(-0.000373256 0.00617303 0)
(-0.00186566 0.0134211 0)
(-0.00440207 0.0170233 0)
(-0.00730712 0.0181885 0)
(-0.0102736 0.017842 0)
(-0.0131813 0.0165597 0)
(-0.0159578 0.0146276 0)
(-0.0185362 0.0121528 0)
(-0.0208367 0.00915687 0)
(-0.0227549 0.00563392 0)
(-0.0241567 0.00158621 0)
(-0.0248833 -0.00295602 0)
(-0.0247166 -0.00790389 0)
(-0.0234211 -0.0130029 0)
(-0.0208392 -0.0177925 0)
(-0.0169643 -0.0215383 0)
(-0.0120788 -0.0232244 0)
(-0.00687111 -0.0217238 0)
(-0.00246873 -0.016193 0)
(-0.000323845 -0.00651219 0)
(-0.000480348 0.00846658 0)
(-0.00239837 0.0183031 0)
(-0.00565894 0.0231785 0)
(-0.00940703 0.0248344 0)
(-0.0132744 0.0245663 0)
(-0.0171438 0.0231521 0)
(-0.0209614 0.0209503 0)
(-0.0246776 0.0180616 0)
(-0.0282186 0.0144554 0)
(-0.0314644 0.0100429 0)
(-0.0342461 0.0047201 0)
(-0.0363405 -0.00158199 0)
(-0.0373336 -0.00882769 0)
(-0.0366392 -0.0168641 0)
(-0.0337406 -0.0250188 0)
(-0.0282926 -0.0319722 0)
(-0.0205017 -0.0356566 0)
(-0.0115652 -0.0336846 0)
(-0.00383943 -0.0246084 0)
(-0.00034681 -0.00926289 0)
(-0.000590308 0.0113639 0)
(-0.00296042 0.0244812 0)
(-0.00700062 0.0309879 0)
(-0.0116589 0.0333364 0)
(-0.0165104 0.0333175 0)
(-0.0214683 0.0319788 0)
(-0.0265389 0.0297789 0)
(-0.0317422 0.0268135 0)
(-0.0370783 0.0229785 0)
(-0.0424879 0.0180479 0)
(-0.0477896 0.0117074 0)
(-0.052633 0.0035931 0)
(-0.056561 -0.00662197 0)
(-0.0584642 -0.0190714 0)
(-0.0566988 -0.0332677 0)
(-0.0499046 -0.0470641 0)
(-0.0376937 -0.0562043 0)
(-0.0217915 -0.0549203 0)
(-0.00688412 -0.0395055 0)
(-0.000300635 -0.0134276 0)
(-0.000686221 0.0148469 0)
(-0.00347153 0.0319658 0)
(-0.0082329 0.0404026 0)
(-0.0137285 0.0435314 0)
(-0.0194907 0.0438679 0)
(-0.0254804 0.0428694 0)
(-0.0318053 0.0411532 0)
(-0.0386351 0.0388336 0)
(-0.0461679 0.0357429 0)
(-0.0545839 0.0315035 0)
(-0.0639508 0.0254904 0)
(-0.0740153 0.0167257 0)
(-0.083863 0.00383913 0)
(-0.0916527 -0.0145433 0)
(-0.0939967 -0.0388161 0)
(-0.0873088 -0.0663455 0)
(-0.0701081 -0.0888238 0)
(-0.0439783 -0.0930734 0)
(-0.0156371 -0.0681645 0)
(-0.000829186 -0.0210509 0)
(-0.000816334 0.0187222 0)
(-0.00417877 0.0403592 0)
(-0.00980117 0.0512941 0)
(-0.0159375 0.0558501 0)
(-0.0220831 0.0571444 0)
(-0.0284202 0.0570633 0)
(-0.0353061 0.0565454 0)
(-0.0431587 0.0559388 0)
(-0.0524759 0.0552149 0)
(-0.0638284 0.0539669 0)
(-0.0777208 0.0511438 0)
(-0.0941453 0.0445008 0)
(-0.11166 0.0301162 0)
(-0.126659 0.00318208 0)
(-0.134625 -0.0387116 0)
(-0.131213 -0.0906249 0)
(-0.113499 -0.138342 0)
(-0.0813335 -0.159115 0)
(-0.0396793 -0.127254 0)
(-0.00639332 -0.0400097 0)
(-0.000817912 0.0257898 0)
(-0.00382865 0.0534283 0)
(-0.00944638 0.0642911 0)
(-0.0159703 0.066754 0)
(-0.0223089 0.0665142 0)
(-0.0284087 0.066334 0)
(-0.0346041 0.0671962 0)
(-0.0414184 0.0693533 0)
(-0.0495408 0.0727266 0)
(-0.0597774 0.076656 0)
(-0.0729168 0.0790965 0)
(-0.089324 0.0755499 0)
(-0.108013 0.0589687 0)
(-0.125593 0.0219245 0)
(-0.136978 -0.0390735 0)
(-0.14033 -0.118731 0)
(-0.133055 -0.200988 0)
(-0.111622 -0.257247 0)
(-0.0755234 -0.242346 0)
(-0.0223139 -0.104839 0)
(-0.00418744 0.0184751 0)
(-0.00989003 0.0496894 0)
(-0.0138346 0.0714823 0)
(-0.0173187 0.0821342 0)
(-0.0214815 0.085803 0)
(-0.0253712 0.0867818 0)
(-0.0283759 0.0878933 0)
(-0.0303608 0.0907191 0)
(-0.0313745 0.0958722 0)
(-0.0315727 0.10271 0)
(-0.0315232 0.108999 0)
(-0.0322308 0.109311 0)
(-0.0348403 0.0956288 0)
(-0.040073 0.0591528 0)
(-0.0464337 -0.00624609 0)
(-0.0586424 -0.102666 0)
(-0.0709086 -0.217109 0)
(-0.0766182 -0.325616 0)
(-0.0751999 -0.376301 0)
(-0.0307745 -0.258318 0)
(-0.0227821 0.084684 0)
(-0.0490753 0.0995128 0)
(-0.0628198 0.0867913 0)
(-0.0633716 0.0792457 0)
(-0.0577794 0.0736564 0)
(-0.0483894 0.0691126 0)
(-0.0364333 0.0663324 0)
(-0.0224055 0.0657584 0)
(-0.00642738 0.0673803 0)
(0.0121758 0.0705371 0)
(0.0335327 0.0736204 0)
(0.0562887 0.073442 0)
(0.0790564 0.0654843 0)
(0.098883 0.0444592 0)
(0.105918 0.00561668 0)
(0.101547 -0.0534764 0)
(0.0852912 -0.134247 0)
(0.0621637 -0.240967 0)
(0.00306408 -0.349602 0)
(-0.00313478 -0.338008 0)
(0.0694377 0.082154 0)
(0.0719443 0.0968226 0)
(0.12487 0.0888323 0)
(0.173034 0.0793945 0)
(0.211232 0.0707746 0)
(0.243392 0.0630864 0)
(0.272191 0.0563659 0)
(0.299154 0.0507487 0)
(0.324657 0.0460411 0)
(0.349835 0.0425184 0)
(0.373602 0.0394275 0)
(0.397737 0.0365635 0)
(0.417008 0.0322904 0)
(0.43508 0.0258129 0)
(0.438482 0.0148575 0)
(0.435618 -0.000640126 0)
(0.402839 -0.020175 0)
(0.35525 -0.0453454 0)
(0.233668 -0.0628526 0)
(0.128223 -0.107934 0)
)
;

boundaryField
{
    movingWall
    {
        type            fixedValue;
        value           uniform (1 0 0);
    }
    fixedWalls
    {
        type            noSlip;
    }
    frontAndBack
    {
        type            empty;
    }
}


// ************************************************************************* //
