/*--------------------------------*- C++ -*----------------------------------*\
  =========                 |
  \\      /  F ield         | OpenFOAM: The Open Source CFD Toolbox
   \\    /   O peration     | Website:  https://openfoam.org
    \\  /    A nd           | Version:  7
     \\/     M anipulation  |
\*---------------------------------------------------------------------------*/
FoamFile
{
    version     2.0;
    format      ascii;
    class       volScalarField;
    location    "0.4";
    object      p;
}
// * * * * * * * * * * * * * * * * * * * * * * * * * * * * * * * * * * * * * //

dimensions      [0 2 -2 0 0 0 0];

internalField   nonuniform List<scalar> 
400
(
1.11067e-08
-2.64976e-06
-4.39409e-06
-4.71418e-06
-3.27096e-06
5.31772e-08
5.14144e-06
1.17098e-05
1.93722e-05
2.76831e-05
3.6166e-05
4.43372e-05
5.17294e-05
5.7916e-05
6.25423e-05
6.53695e-05
6.63396e-05
6.5641e-05
6.36855e-05
6.10082e-05
7.56618e-06
3.21213e-06
9.9729e-07
6.91419e-07
2.0256e-06
4.94169e-06
9.31132e-06
1.4891e-05
2.1359e-05
2.83443e-05
3.54475e-05
4.2263e-05
4.84028e-05
5.35193e-05
5.73288e-05
5.96412e-05
6.03961e-05
5.96161e-05
5.7131e-05
5.27704e-05
6.4784e-06
1.68541e-08
-3.30479e-06
-3.97514e-06
-2.55889e-06
7.76919e-07
5.83411e-06
1.22963e-05
1.97696e-05
2.78128e-05
3.59573e-05
4.373e-05
5.06792e-05
5.63992e-05
6.05548e-05
6.29139e-05
6.33871e-05
6.19399e-05
5.81758e-05
5.17221e-05
-2.60101e-06
-1.14686e-05
-1.59557e-05
-1.67619e-05
-1.47076e-05
-1.00657e-05
-3.13847e-06
5.62644e-06
1.56896e-05
2.64565e-05
3.73015e-05
4.75953e-05
5.67389e-05
6.41962e-05
6.95266e-05
7.24295e-05
7.27969e-05
7.0596e-05
6.53073e-05
5.64405e-05
-2.25249e-05
-3.47978e-05
-4.07309e-05
-4.13197e-05
-3.77576e-05
-3.04777e-05
-1.99477e-05
-6.82987e-06
8.09137e-06
2.39574e-05
3.98658e-05
5.49073e-05
6.82164e-05
7.90219e-05
8.6699e-05
9.08373e-05
9.13195e-05
8.81582e-05
8.07141e-05
6.83811e-05
-5.82069e-05
-7.54962e-05
-8.33127e-05
-8.31373e-05
-7.67644e-05
-6.48877e-05
-4.82337e-05
-2.7795e-05
-4.7347e-06
1.9673e-05
4.40822e-05
6.71202e-05
8.74732e-05
0.000103968
0.000115664
0.000121973
0.00012278
0.000118215
0.000107519
8.99482e-05
-0.000118091
-0.000142654
-0.000152888
-0.000151058
-0.000139909
-0.000120545
-9.40744e-05
-6.1965e-05
-2.59304e-05
1.21365e-05
5.02093e-05
8.61742e-05
0.000117964
0.000143714
0.000161936
0.000171729
0.000173009
0.000166177
0.00015043
0.000124925
-0.000215998
-0.000250872
-0.000264112
-0.000259223
-0.00024041
-0.000209385
-0.000167775
-0.000117678
-6.15493e-05
-2.15649e-06
5.74685e-05
0.00011405
0.000164228
0.000204917
0.000233609
0.000248819
0.000250514
0.000239697
0.000215847
0.00017826
-0.000373815
-0.000422965
-0.000439836
-0.000429855
-0.000399407
-0.000351035
-0.000286979
-0.000210052
-0.000123595
-3.15157e-05
6.17262e-05
0.000151106
0.000230999
0.000296076
0.00034184
0.000365525
0.000367085
0.000348787
0.00031135
0.000255019
-0.000625395
-0.000693793
-0.000715025
-0.000697448
-0.000650564
-0.000577935
-0.00048232
-0.000367079
-0.000236319
-9.52948e-05
4.95197e-05
0.000191183
0.000319765
0.000425805
0.000500665
0.000538492
0.000538611
0.000505726
0.000444231
0.000357627
-0.00102149
-0.00111504
-0.00114184
-0.00111458
-0.00104704
-0.000943802
-0.000807667
-0.000641833
-0.000450499
-0.000240424
-2.10339e-05
0.000206179
0.000417009
0.000595013
0.000723237
0.000788095
0.000785606
0.000724282
0.000617593
0.000478408
-0.00163466
-0.00175982
-0.00179483
-0.00175855
-0.00167023
-0.00153516
-0.00135496
-0.00113093
-0.00086495
-0.000560522
-0.000225083
0.000121311
0.000464997
0.000771668
0.00100424
0.00112912
0.00112927
0.00101556
0.000819942
0.000579441
-0.00256139
-0.00272474
-0.00277425
-0.00273731
-0.00264008
-0.00248816
-0.00228042
-0.00201352
-0.00168299
-0.00128557
-0.000825227
-0.000317168
0.000241946
0.000783811
0.00123597
0.00151584
0.00156151
0.00137092
0.00100242
0.000544467
-0.00391383
-0.00412051
-0.00419592
-0.00417937
-0.0041066
-0.00398476
-0.00381004
-0.00357342
-0.00326107
-0.00285414
-0.00233087
-0.00167811
-0.000904281
-1.1944e-06
0.000901141
0.00160907
0.00191745
0.00172455
0.00107081
0.000102672
-0.00580526
-0.00606083
-0.00618252
-0.00622787
-0.0062478
-0.00625645
-0.00625461
-0.00623736
-0.0061935
-0.00609904
-0.00590084
-0.00550106
-0.00478271
-0.00363178
-0.00205506
-0.000323445
0.00105286
0.00152656
0.000751077
-0.00125235
-0.0082821
-0.00858732
-0.0087503
-0.00886359
-0.00902197
-0.00927077
-0.00963888
-0.0101586
-0.0108718
-0.0118202
-0.0129921
-0.0142006
-0.014975
-0.014747
-0.0131339
-0.00989034
-0.00569654
-0.00219293
-0.00136712
-0.00397574
-0.0113682
-0.0116545
-0.0118337
-0.0120362
-0.0123931
-0.0129917
-0.0139192
-0.0152957
-0.0172858
-0.0200795
-0.0237944
-0.0282685
-0.0327508
-0.0357102
-0.0355356
-0.0312399
-0.0230641
-0.0134081
-0.00690466
-0.00640838
-0.0161421
-0.0160408
-0.0154213
-0.0149707
-0.0149524
-0.0154734
-0.0166297
-0.0185724
-0.0215483
-0.0258295
-0.0315732
-0.0385958
-0.0460993
-0.0522882
-0.0543718
-0.05056
-0.0398508
-0.0233583
-0.00713315
0.0021248
-0.0159042
-0.0167127
-0.0170204
-0.0169505
-0.0168504
-0.0170462
-0.017834
-0.0194486
-0.0223522
-0.0267618
-0.0327644
-0.0400082
-0.0473749
-0.0527635
-0.0529989
-0.0444748
-0.0251946
0.00444577
0.0384406
0.0702562
-0.066692
-0.0344279
-0.0209883
-0.0158099
-0.0131124
-0.0117307
-0.01166
-0.0129773
-0.0157166
-0.0197982
-0.0248793
-0.0300548
-0.0336578
-0.0330905
-0.0250612
-0.00494945
0.0320316
0.0880041
0.157543
0.22973
)
;

boundaryField
{
    movingWall
    {
        type            zeroGradient;
    }
    fixedWalls
    {
        type            zeroGradient;
    }
    frontAndBack
    {
        type            empty;
    }
}


// ************************************************************************* //
