/*--------------------------------*- C++ -*----------------------------------*\
  =========                 |
  \\      /  F ield         | OpenFOAM: The Open Source CFD Toolbox
   \\    /   O peration     | Website:  https://openfoam.org
    \\  /    A nd           | Version:  7
     \\/     M anipulation  |
\*---------------------------------------------------------------------------*/
FoamFile
{
    version     2.0;
    format      ascii;
    class       surfaceScalarField;
    location    "0.4";
    object      phi;
}
// * * * * * * * * * * * * * * * * * * * * * * * * * * * * * * * * * * * * * //

dimensions      [0 3 -1 0 0 0 0];

internalField   nonuniform List<scalar> 
760
(
-8.48363e-10
8.47225e-10
-4.3311e-09
3.48282e-09
-1.00297e-08
5.69873e-09
-1.70137e-08
6.98419e-09
-2.43419e-08
7.3284e-09
-3.12297e-08
6.88794e-09
-3.70884e-08
5.85879e-09
-4.15089e-08
4.42064e-09
-4.42287e-08
2.71975e-09
-4.51021e-08
8.73306e-10
-4.40837e-08
-1.0185e-09
-4.12244e-08
-2.8596e-09
-3.66777e-08
-4.54678e-09
-3.072e-08
-5.95782e-09
-2.37783e-08
-6.94164e-09
-1.64608e-08
-7.31723e-09
-9.56523e-09
-6.89529e-09
-4.02579e-09
-5.53909e-09
-7.28739e-10
-3.29678e-09
-7.2862e-10
-3.61501e-09
4.46228e-09
-1.25893e-08
1.24573e-08
-2.51247e-08
1.82344e-08
-3.94774e-08
2.1337e-08
-5.40615e-08
2.19128e-08
-6.7565e-08
2.03915e-08
-7.89791e-08
1.72729e-08
-8.75759e-08
1.30174e-08
-9.28693e-08
8.01284e-09
-9.45811e-08
2.5848e-09
-9.26229e-08
-2.97719e-09
-8.70908e-08
-8.39202e-09
-7.82762e-08
-1.33615e-08
-6.66879e-08
-1.7546e-08
-5.30856e-08
-2.05436e-08
-3.85126e-08
-2.18898e-08
-2.43053e-08
-2.11024e-08
-1.204e-08
-1.78042e-08
-3.39081e-09
-1.1946e-08
-4.11951e-09
-5.34182e-09
9.80426e-09
-1.8412e-08
2.55278e-08
-3.63752e-08
3.6198e-08
-5.66433e-08
4.16055e-08
-7.702e-08
4.22898e-08
-9.57529e-08
3.91247e-08
-1.11517e-07
3.30376e-08
-1.23362e-07
2.48614e-08
-1.30646e-07
1.52969e-08
-1.33e-07
4.93895e-09
-1.30302e-07
-5.67544e-09
-1.22675e-07
-1.60199e-08
-1.10499e-07
-2.55367e-08
-9.44489e-08
-3.35964e-08
-7.55297e-08
-3.94626e-08
-5.51323e-08
-4.2287e-08
-3.50623e-08
-4.11723e-08
-1.75165e-08
-3.53501e-08
-4.97562e-09
-2.4487e-08
-9.09516e-09
-7.26883e-09
1.70733e-08
-2.5081e-08
4.33403e-08
-4.948e-08
6.05971e-08
-7.68935e-08
6.90192e-08
-1.04352e-07
6.97484e-08
-1.2953e-07
6.43028e-08
-1.5069e-07
5.41977e-08
-1.66587e-07
4.07581e-08
-1.76378e-07
2.5088e-08
-1.79567e-07
8.12707e-09
-1.75974e-07
-9.26867e-09
-1.65744e-07
-2.625e-08
-1.49368e-07
-4.19121e-08
-1.27733e-07
-5.52315e-08
-1.02182e-07
-6.50143e-08
-7.45856e-08
-6.98831e-08
-4.73951e-08
-6.83628e-08
-2.36157e-08
-5.91294e-08
-6.65806e-09
-4.14444e-08
-1.57532e-08
-1.01812e-08
2.72547e-08
-3.49905e-08
6.81497e-08
-6.88239e-08
9.44306e-08
-1.06706e-07
1.06901e-07
-1.44565e-07
1.07608e-07
-1.79252e-07
9.89898e-08
-2.08424e-07
8.33696e-08
-2.30394e-07
6.27277e-08
-2.44001e-07
3.86949e-08
-2.48534e-07
1.26601e-08
-2.43704e-07
-1.40983e-08
-2.29665e-07
-4.02882e-08
-2.07061e-07
-6.45162e-08
-1.77099e-07
-8.51942e-08
-1.41644e-07
-1.00469e-07
-1.03321e-07
-1.08206e-07
-6.55689e-08
-1.06115e-07
-3.25971e-08
-9.2101e-08
-9.15288e-09
-6.48885e-08
-2.49061e-08
-1.46879e-08
4.19426e-08
-5.01045e-08
1.03566e-07
-9.80959e-08
1.42422e-07
-1.51613e-07
1.60418e-07
-2.04999e-07
1.60993e-07
-2.53924e-07
1.47915e-07
-2.95175e-07
1.24621e-07
-3.26409e-07
9.39616e-08
-3.45968e-07
5.82535e-08
-3.52777e-07
1.94698e-08
-3.46327e-07
-2.05486e-08
-3.2673e-07
-5.98848e-08
-2.94816e-07
-9.64296e-08
-2.52264e-07
-1.27746e-07
-2.01746e-07
-1.50986e-07
-1.47068e-07
-1.62885e-07
-9.32156e-08
-1.59967e-07
-4.62564e-08
-1.3906e-07
-1.29549e-08
-9.81904e-08
-3.78612e-08
-2.14916e-08
6.34341e-08
-7.26606e-08
1.54735e-07
-1.41494e-07
2.11255e-07
-2.17936e-07
2.3686e-07
-2.94098e-07
2.37155e-07
-3.64021e-07
2.17838e-07
-4.23274e-07
1.83873e-07
-4.68562e-07
1.3925e-07
-4.97455e-07
8.71468e-08
-5.08258e-07
3.02725e-08
-5.00006e-07
-2.87998e-08
-4.72618e-07
-8.72732e-08
-4.27094e-07
-1.41953e-07
-3.65761e-07
-1.8908e-07
-2.9252e-07
-2.24226e-07
-2.13039e-07
-2.42366e-07
-1.34769e-07
-2.38237e-07
-6.66801e-08
-2.0715e-07
-1.85929e-08
-1.46278e-07
-5.64542e-08
-3.1527e-08
9.49609e-08
-1.05573e-07
2.28781e-07
-2.04438e-07
3.1012e-07
-3.13831e-07
3.46252e-07
-4.22833e-07
3.46157e-07
-5.23312e-07
3.18317e-07
-6.09197e-07
2.69758e-07
-6.75842e-07
2.05896e-07
-7.19615e-07
1.3092e-07
-7.3774e-07
4.8397e-08
-7.28327e-07
-3.8212e-08
-6.90674e-07
-1.24927e-07
-6.25773e-07
-2.06854e-07
-5.36747e-07
-2.78107e-07
-4.29334e-07
-3.31639e-07
-3.12196e-07
-3.59504e-07
-1.96817e-07
-3.53615e-07
-9.68415e-08
-3.07125e-07
-2.67614e-08
-2.16358e-07
-8.32156e-08
-4.60071e-08
1.40968e-07
-1.52545e-07
3.35319e-07
-2.9376e-07
4.51335e-07
-4.496e-07
5.02092e-07
-6.05205e-07
5.01762e-07
-7.49697e-07
4.62809e-07
-8.749e-07
3.94961e-07
-9.74301e-07
3.05296e-07
-1.0424e-06
1.99024e-07
-1.07455e-06
8.05433e-08
-1.06701e-06
-4.57547e-08
-1.01737e-06
-1.74566e-07
-9.25971e-07
-2.98252e-07
-7.96622e-07
-4.07456e-07
-6.3768e-07
-4.90581e-07
-4.62686e-07
-5.34499e-07
-2.90038e-07
-5.26265e-07
-1.41319e-07
-4.55844e-07
-3.841e-08
-3.19267e-07
-1.21626e-07
-6.63428e-08
2.07311e-07
-2.17804e-07
4.8678e-07
-4.17235e-07
6.50766e-07
-6.37075e-07
7.21932e-07
-8.5765e-07
7.22338e-07
-1.06488e-06
6.70042e-07
-1.24811e-06
5.78188e-07
-1.39837e-06
4.55556e-07
-1.50737e-06
3.08019e-07
-1.56721e-06
1.40386e-07
-1.57095e-06
-4.20084e-08
-1.51149e-06
-2.34031e-07
-1.38682e-06
-4.22921e-07
-1.20029e-06
-5.93989e-07
-9.63393e-07
-7.27473e-07
-6.97572e-07
-8.0032e-07
-4.33666e-07
-7.90171e-07
-2.07922e-07
-6.81588e-07
-5.48881e-08
-4.72301e-07
-1.76514e-07
-9.38361e-08
3.01147e-07
-3.05187e-07
6.98131e-07
-5.8196e-07
9.27539e-07
-8.87369e-07
1.02734e-06
-1.19637e-06
1.03134e-06
-1.49169e-06
9.65359e-07
-1.7602e-06
8.46693e-07
-1.99014e-06
6.85501e-07
-2.16934e-06
4.8722e-07
-2.28433e-06
2.55373e-07
-2.32602e-06
-3.16872e-10
-2.27087e-06
-2.89178e-07
-2.11326e-06
-5.80535e-07
-1.85119e-06
-8.56064e-07
-1.49748e-06
-1.08118e-06
-1.08518e-06
-1.21262e-06
-6.68235e-07
-1.20712e-06
-3.1278e-07
-1.03704e-06
-7.85738e-08
-7.06507e-07
-2.55087e-07
-1.29021e-07
4.30168e-07
-4.16259e-07
9.85368e-07
-7.91043e-07
1.30232e-06
-1.20613e-06
1.44243e-06
-1.63143e-06
1.45664e-06
-2.04757e-06
1.3815e-06
-2.44026e-06
1.23938e-06
-2.79583e-06
1.04108e-06
-3.09815e-06
7.89543e-07
-3.32694e-06
4.84161e-07
-3.45382e-06
1.26564e-07
-3.45554e-06
-2.87459e-07
-3.29516e-06
-7.4091e-07
-2.95318e-06
-1.19805e-06
-2.43358e-06
-1.60077e-06
-1.78142e-06
-1.86479e-06
-1.09214e-06
-1.89639e-06
-4.97089e-07
-1.63209e-06
-1.15946e-07
-1.08765e-06
-3.71034e-07
-1.70495e-07
6.00663e-07
-5.47046e-07
1.36192e-06
-1.03766e-06
1.79294e-06
-1.58436e-06
1.98914e-06
-2.15369e-06
2.02597e-06
-2.72722e-06
1.95503e-06
-3.29322e-06
1.80537e-06
-3.83984e-06
1.5877e-06
-4.34975e-06
1.29945e-06
-4.79523e-06
9.29647e-07
-5.13371e-06
4.65038e-07
-5.32174e-06
-9.94261e-08
-5.262e-06
-8.00649e-07
-4.88986e-06
-1.57019e-06
-4.16692e-06
-2.32372e-06
-3.13346e-06
-2.89825e-06
-1.94728e-06
-3.08257e-06
-8.74399e-07
-2.70498e-06
-1.88563e-07
-1.77349e-06
-5.59597e-07
-2.14376e-07
8.15039e-07
-6.85849e-07
1.83339e-06
-1.29984e-06
2.40693e-06
-1.98847e-06
2.67777e-06
-2.71841e-06
2.75592e-06
-3.47828e-06
2.71489e-06
-4.26705e-06
2.59414e-06
-5.0844e-06
2.40505e-06
-5.92174e-06
2.13679e-06
-6.75165e-06
1.75956e-06
-7.51387e-06
1.22725e-06
-8.10495e-06
4.91656e-07
-8.39367e-06
-5.11923e-07
-8.16681e-06
-1.79705e-06
-7.28687e-06
-3.20365e-06
-5.73765e-06
-4.44747e-06
-3.72576e-06
-5.09446e-06
-1.72463e-06
-4.70611e-06
-3.60814e-07
-3.1373e-06
-9.20412e-07
-2.53099e-07
1.06814e-06
-8.106e-07
2.39089e-06
-1.53378e-06
3.13011e-06
-2.34651e-06
3.49049e-06
-3.22023e-06
3.62964e-06
-4.15791e-06
3.65257e-06
-5.18004e-06
3.61627e-06
-6.31211e-06
3.53712e-06
-7.57023e-06
3.39492e-06
-8.94042e-06
3.12975e-06
-1.03484e-05
2.63523e-06
-1.16204e-05
1.76362e-06
-1.25154e-05
3.83092e-07
-1.27144e-05
-1.59808e-06
-1.19274e-05
-3.99056e-06
-9.99787e-06
-6.37704e-06
-7.03266e-06
-8.05967e-06
-3.59948e-06
-8.13929e-06
-8.49813e-07
-5.88697e-06
-1.77023e-06
-2.96099e-07
1.36424e-06
-9.37774e-07
3.03257e-06
-1.74264e-06
3.93498e-06
-2.61241e-06
4.36026e-06
-3.52825e-06
4.54548e-06
-4.51938e-06
4.6437e-06
-5.63661e-06
4.73349e-06
-6.93484e-06
4.83535e-06
-8.454e-06
4.91407e-06
-1.01916e-05
4.86735e-06
-1.20706e-05
4.51418e-06
-1.39158e-05
3.60886e-06
-1.54204e-05
1.88766e-06
-1.62248e-05
-7.93686e-07
-1.61253e-05
-4.09005e-06
-1.46624e-05
-7.83995e-06
-1.15556e-05
-1.11665e-05
-6.98915e-06
-1.27057e-05
-2.23653e-06
-1.06396e-05
-4.00676e-06
-3.53596e-07
1.71783e-06
-1.00299e-06
3.68197e-06
-1.77221e-06
4.70419e-06
-2.56534e-06
5.15339e-06
-3.3442e-06
5.32435e-06
-4.12125e-06
5.42075e-06
-4.93664e-06
5.54888e-06
-5.84145e-06
5.74017e-06
-6.88211e-06
5.95473e-06
-8.08795e-06
6.07319e-06
-9.46115e-06
5.88738e-06
-1.09725e-05
5.12025e-06
-1.25678e-05
3.4829e-06
-1.40299e-05
6.68405e-07
-1.50591e-05
-3.06082e-06
-1.52393e-05
-7.65975e-06
-1.38841e-05
-1.25217e-05
-1.02771e-05
-1.63127e-05
-4.57223e-06
-1.63445e-05
-8.57899e-06
-9.058e-07
2.62363e-06
-1.87942e-06
4.65559e-06
-2.50737e-06
5.33214e-06
-2.92932e-06
5.57534e-06
-3.16996e-06
5.56499e-06
-3.22537e-06
5.47616e-06
-3.09121e-06
5.41472e-06
-2.77241e-06
5.42136e-06
-2.30432e-06
5.48664e-06
-1.75759e-06
5.52646e-06
-1.26158e-06
5.39136e-06
-1.01227e-06
4.87095e-06
-1.24101e-06
3.71164e-06
-2.22846e-06
1.65586e-06
-3.86992e-06
-1.41936e-06
-6.05332e-06
-5.47636e-06
-8.07363e-06
-1.05014e-05
-8.51065e-06
-1.58757e-05
-5.63539e-06
-1.92197e-05
-1.42144e-05
-3.40516e-06
6.0288e-06
-5.51878e-06
6.7692e-06
-5.89675e-06
5.71011e-06
-5.13659e-06
4.81517e-06
-3.78251e-06
4.21091e-06
-2.06332e-06
3.75697e-06
-7.48284e-08
3.42624e-06
2.14035e-06
3.20619e-06
4.56845e-06
3.05853e-06
7.1642e-06
2.93072e-06
9.81527e-06
2.74029e-06
1.22987e-05
2.38755e-06
1.42444e-05
1.7659e-06
1.5064e-05
8.36215e-07
1.43083e-05
-6.63618e-07
1.20335e-05
-3.2016e-06
8.06123e-06
-6.52904e-06
2.96459e-06
-1.0779e-05
-9.76606e-07
-1.52785e-05
-1.5191e-05
6.0288e-06
1.2798e-05
1.85081e-05
2.33233e-05
2.75342e-05
3.12912e-05
3.47174e-05
3.79236e-05
4.09821e-05
4.39128e-05
4.66531e-05
4.90407e-05
5.08066e-05
5.16428e-05
5.09792e-05
4.77776e-05
4.12485e-05
3.04695e-05
1.5191e-05
)
;

boundaryField
{
    movingWall
    {
        type            calculated;
        value           uniform 0;
    }
    fixedWalls
    {
        type            calculated;
        value           uniform 0;
    }
    frontAndBack
    {
        type            empty;
        value           nonuniform 0();
    }
}


// ************************************************************************* //
