/*--------------------------------*- C++ -*----------------------------------*\
  =========                 |
  \\      /  F ield         | OpenFOAM: The Open Source CFD Toolbox
   \\    /   O peration     | Website:  https://openfoam.org
    \\  /    A nd           | Version:  7
     \\/     M anipulation  |
\*---------------------------------------------------------------------------*/
FoamFile
{
    version     2.0;
    format      ascii;
    class       volVectorField;
    location    "0.4";
    object      U;
}
// * * * * * * * * * * * * * * * * * * * * * * * * * * * * * * * * * * * * * //

dimensions      [0 1 -1 0 0 0 0];

internalField   nonuniform List<vector> 
400
(
(-9.31328e-07 3.53748e-07 0)
(-1.99993e-05 1.81974e-05 0)
(-6.78766e-05 3.60264e-05 0)
(-0.000133567 4.73128e-05 0)
(-0.000206985 5.11663e-05 0)
(-0.000279512 4.87422e-05 0)
(-0.000344307 4.16858e-05 0)
(-0.000396425 3.15025e-05 0)
(-0.000432566 1.93727e-05 0)
(-0.000450739 6.19289e-06 0)
(-0.000450012 -7.30697e-06 0)
(-0.000430409 -2.04412e-05 0)
(-0.000392924 -3.24553e-05 0)
(-0.000339655 -4.24123e-05 0)
(-0.000274061 -4.90921e-05 0)
(-0.000201289 -5.09794e-05 0)
(-0.000128365 -4.64859e-05 0)
(-6.39588e-05 -3.46254e-05 0)
(-1.78742e-05 -1.66024e-05 0)
(-3.51369e-07 6.88404e-07 0)
(-1.20447e-05 4.18891e-05 0)
(-6.99185e-05 0.000134838 0)
(-0.000181168 0.000207488 0)
(-0.000320509 0.000248596 0)
(-0.000468853 0.000258369 0)
(-0.000611991 0.000241875 0)
(-0.000738584 0.000205455 0)
(-0.000840043 0.000155005 0)
(-0.000910374 9.54274e-05 0)
(-0.000945824 3.07477e-05 0)
(-0.000944589 -3.55229e-05 0)
(-0.000906702 -0.000100004 0)
(-0.000834059 -0.000159087 0)
(-0.000730589 -0.000208586 0)
(-0.000602563 -0.000243446 0)
(-0.000458923 -0.00025774 0)
(-0.000311348 -0.000245358 0)
(-0.000174193 -0.000201891 0)
(-6.60678e-05 -0.00012833 0)
(-1.09948e-05 -3.75473e-05 0)
(-1.80488e-05 0.000135819 0)
(-0.000103014 0.00036214 0)
(-0.000263804 0.000519759 0)
(-0.000462046 0.000601922 0)
(-0.000670329 0.000614709 0)
(-0.00086949 0.000570323 0)
(-0.00104464 0.000482362 0)
(-0.00118455 0.000363268 0)
(-0.00128138 0.000223562 0)
(-0.00133015 7.21508e-05 0)
(-0.00132844 -8.29719e-05 0)
(-0.00127624 -0.000234018 0)
(-0.00117601 -0.000372749 0)
(-0.00103294 -0.000489849 0)
(-0.0008553 -0.0005744 0)
(-0.00065497 -0.000613835 0)
(-0.000447515 -0.000595039 0)
(-0.000252502 -0.000507278 0)
(-9.67034e-05 -0.000347234 0)
(-1.63168e-05 -0.000125724 0)
(-2.45236e-05 0.000259252 0)
(-0.000140357 0.000664001 0)
(-0.000359254 0.00093355 0)
(-0.000627976 0.00106754 0)
(-0.000909111 0.00108171 0)
(-0.00117706 0.000998877 0)
(-0.00141224 0.000842588 0)
(-0.00159999 0.000633749 0)
(-0.00173001 0.000389903 0)
(-0.00179571 0.000125978 0)
(-0.00179375 -0.000144492 0)
(-0.00172392 -0.000408198 0)
(-0.00158932 -0.000651017 0)
(-0.00139668 -0.000857032 0)
(-0.00115701 -0.00100768 0)
(-0.000886211 -0.00108154 0)
(-0.000605314 -0.00105586 0)
(-0.000340972 -0.000910583 0)
(-0.000129861 -0.000635546 0)
(-2.15689e-05 -0.000239663 0)
(-3.45715e-05 0.000428691 0)
(-0.00019639 0.00107744 0)
(-0.000500582 0.00149844 0)
(-0.000872482 0.0017011 0)
(-0.00126041 0.00171552 0)
(-0.00162957 0.00157967 0)
(-0.00195358 0.00133066 0)
(-0.00221264 0.00100063 0)
(-0.00239274 0.000616243 0)
(-0.00248463 0.000200207 0)
(-0.00248335 -0.00022669 0)
(-0.00238814 -0.00064374 0)
(-0.00220282 -0.00102876 0)
(-0.00193645 -0.00135664 0)
(-0.00160417 -0.00159812 0)
(-0.0012282 -0.00171945 0)
(-0.000838094 -0.0016844 0)
(-0.000471251 -0.00146007 0)
(-0.000178833 -0.00102706 0)
(-2.94523e-05 -0.000393135 0)
(-5.04488e-05 0.000670032 0)
(-0.000282609 0.00166132 0)
(-0.000715294 0.00229179 0)
(-0.00124154 0.00258752 0)
(-0.00178879 0.00260049 0)
(-0.00230916 0.00239036 0)
(-0.00276653 0.00201295 0)
(-0.00313366 0.00151538 0)
(-0.00339086 0.000936273 0)
(-0.00352459 0.00030853 0)
(-0.00352692 -0.00033734 0)
(-0.0033957 -0.000970345 0)
(-0.00313534 -0.0015567 0)
(-0.00275804 -0.00205781 0)
(-0.00228525 -0.00242868 0)
(-0.00174905 -0.00261757 0)
(-0.00119238 -0.00256906 0)
(-0.00066941 -0.00223236 0)
(-0.000253385 -0.00157592 0)
(-4.15046e-05 -0.000607379 0)
(-7.47993e-05 0.00102152 0)
(-0.00041219 0.00250164 0)
(-0.00103468 0.00342565 0)
(-0.00178749 0.00384913 0)
(-0.0025682 0.00385795 0)
(-0.00331073 0.00354324 0)
(-0.0039656 0.00298663 0)
(-0.00449504 0.00225512 0)
(-0.00487081 0.0014027 0)
(-0.00507246 0.000475442 0)
(-0.00508655 -0.000483161 0)
(-0.00490747 -0.00142761 0)
(-0.00453926 -0.00230683 0)
(-0.00399796 -0.00306162 0)
(-0.0033142 -0.00362267 0)
(-0.00253543 -0.00391097 0)
(-0.00172596 -0.00384282 0)
(-0.000966519 -0.00334232 0)
(-0.000364313 -0.00236231 0)
(-5.91284e-05 -0.000912935 0)
(-0.000111233 0.0015376 0)
(-0.000602494 0.00371921 0)
(-0.00149924 0.00505632 0)
(-0.0025778 0.0056563 0)
(-0.00369417 0.00565789 0)
(-0.00475809 0.00519787 0)
(-0.00570237 0.00439315 0)
(-0.00647472 0.00333627 0)
(-0.00703433 0.00210017 0)
(-0.00734933 0.000747076 0)
(-0.00739605 -0.000662751 0)
(-0.00716069 -0.00206354 0)
(-0.00664358 -0.00337794 0)
(-0.00586412 -0.00451391 0)
(-0.00486573 -0.00536297 0)
(-0.0037199 -0.00580246 0)
(-0.00252585 -0.00570543 0)
(-0.00140785 -0.00496051 0)
(-0.000526287 -0.00350251 0)
(-8.38458e-05 -0.00135197 0)
(-0.000164539 0.00229425 0)
(-0.000875797 0.00547969 0)
(-0.00216016 0.00739668 0)
(-0.0036974 0.00824154 0)
(-0.00528774 0.00823508 0)
(-0.00681038 0.0075798 0)
(-0.0081759 0.00643963 0)
(-0.00931291 0.00493832 0)
(-0.0101622 0.00317001 0)
(-0.0106733 0.00121465 0)
(-0.0108035 -0.000847649 0)
(-0.0105204 -0.0029247 0)
(-0.00981129 -0.00489843 0)
(-0.00869441 -0.0066231 0)
(-0.00722876 -0.00792371 0)
(-0.00552293 -0.00860349 0)
(-0.00373524 -0.0084651 0)
(-0.00206527 -0.00734644 0)
(-0.000760441 -0.00516739 0)
(-0.000117008 -0.00198196 0)
(-0.000240386 0.00339431 0)
(-0.0012577 0.00800329 0)
(-0.00307555 0.0107282 0)
(-0.00524301 0.0119143 0)
(-0.00748895 0.0119084 0)
(-0.0096568 0.0110061 0)
(-0.0116319 0.00943222 0)
(-0.0133192 0.00734526 0)
(-0.0146338 0.00485846 0)
(-0.0154956 0.00206622 0)
(-0.0158293 -0.000933031 0)
(-0.0155615 -0.00402076 0)
(-0.014641 -0.00701385 0)
(-0.0130697 -0.00967786 0)
(-0.0109172 -0.0117203 0)
(-0.00834553 -0.0128088 0)
(-0.00561526 -0.0126199 0)
(-0.00306581 -0.0109144 0)
(-0.00109971 -0.00761687 0)
(-0.000158655 -0.00288027 0)
(-0.000344045 0.00496922 0)
(-0.00177141 0.011567 0)
(-0.00429787 0.0154043 0)
(-0.00730358 0.0170686 0)
(-0.0104316 0.0170962 0)
(-0.0134888 0.0159131 0)
(-0.0163367 0.0138193 0)
(-0.018856 0.0110058 0)
(-0.0209288 0.00759138 0)
(-0.0224325 0.00366569 0)
(-0.0232473 -0.000667004 0)
(-0.0232087 -0.0052438 0)
(-0.0221621 -0.00982741 0)
(-0.0200539 -0.0140412 0)
(-0.0169285 -0.0173765 0)
(-0.0130045 -0.0192322 0)
(-0.00871535 -0.0190271 0)
(-0.00467758 -0.0163788 0)
(-0.00160794 -0.0112762 0)
(-0.000205263 -0.00415134 0)
(-0.00047754 0.00717148 0)
(-0.00242578 0.0164896 0)
(-0.00584828 0.0218343 0)
(-0.00991969 0.0241722 0)
(-0.014189 0.0243201 0)
(-0.0184361 0.0228842 0)
(-0.0225126 0.0202558 0)
(-0.0262881 0.0166479 0)
(-0.0296191 0.0121553 0)
(-0.0323237 0.0068218 0)
(-0.034162 0.0007106 0)
(-0.034875 -0.00602797 0)
(-0.0341422 -0.0131219 0)
(-0.0316578 -0.0199892 0)
(-0.0273087 -0.0257428 0)
(-0.0213064 -0.0292298 0)
(-0.0143376 -0.029269 0)
(-0.0075752 -0.0251166 0)
(-0.00245537 -0.0169456 0)
(-0.000250238 -0.00595324 0)
(-0.00063451 0.0101471 0)
(-0.00319463 0.0230789 0)
(-0.00767196 0.0304203 0)
(-0.0130089 0.0337037 0)
(-0.0186637 0.0341524 0)
(-0.0244148 0.0326235 0)
(-0.0301405 0.0296219 0)
(-0.0357376 0.0253657 0)
(-0.0410692 0.0198745 0)
(-0.0459162 0.0130591 0)
(-0.0499483 0.00481303 0)
(-0.0527244 -0.00487812 0)
(-0.0535322 -0.0157682 0)
(-0.0515103 -0.0271889 0)
(-0.046058 -0.0376759 0)
(-0.0370974 -0.0449683 0)
(-0.0255393 -0.0464134 0)
(-0.0135341 -0.0401185 0)
(-0.00416816 -0.0264695 0)
(-0.000303343 -0.00864874 0)
(-0.000798639 0.0139951 0)
(-0.00400578 0.0315603 0)
(-0.00960412 0.041472 0)
(-0.0162933 0.0460633 0)
(-0.0234579 0.0471333 0)
(-0.0309244 0.0458933 0)
(-0.0386707 0.0430083 0)
(-0.0467133 0.0386973 0)
(-0.0550295 0.032846 0)
(-0.0634627 0.0250988 0)
(-0.0716002 0.01494 0)
(-0.0786588 0.00183895 0)
(-0.0834351 -0.0144361 0)
(-0.0840881 -0.0333902 0)
(-0.0787285 -0.0529587 0)
(-0.0664471 -0.0689787 0)
(-0.0479978 -0.0755922 0)
(-0.0265854 -0.0675059 0)
(-0.00827034 -0.0442144 0)
(-0.000472096 -0.0132917 0)
(-0.00093938 0.0186655 0)
(-0.00472539 0.0418583 0)
(-0.0113292 0.0548545 0)
(-0.0192043 0.0610504 0)
(-0.0276904 0.0630807 0)
(-0.036721 0.0627002 0)
(-0.0464641 0.0608421 0)
(-0.057185 0.0577685 0)
(-0.0691412 0.0531982 0)
(-0.0824152 0.0463401 0)
(-0.0966328 0.0358538 0)
(-0.110595 0.0199183 0)
(-0.122112 -0.00320166 0)
(-0.128126 -0.0337915 0)
(-0.12542 -0.0691954 0)
(-0.11177 -0.102568 0)
(-0.0867292 -0.122763 0)
(-0.0529941 -0.117233 0)
(-0.0190625 -0.0796092 0)
(-0.00168548 -0.0230772 0)
(-0.00111692 0.0241034 0)
(-0.00550679 0.0537499 0)
(-0.0129961 0.0703018 0)
(-0.0215937 0.0785539 0)
(-0.0305373 0.0821214 0)
(-0.0399693 0.0834323 0)
(-0.0503645 0.0838464 0)
(-0.0623015 0.0837906 0)
(-0.0763351 0.082779 0)
(-0.0928049 0.079241 0)
(-0.111488 0.0702842 0)
(-0.131052 0.051866 0)
(-0.148658 0.0200024 0)
(-0.160757 -0.0269056 0)
(-0.164407 -0.0856039 0)
(-0.156187 -0.146232 0)
(-0.13279 -0.192557 0)
(-0.0934427 -0.202334 0)
(-0.0445068 -0.153009 0)
(-0.00812907 -0.0490126 0)
(-0.00154154 0.0315477 0)
(-0.00620852 0.0686884 0)
(-0.0135028 0.0871298 0)
(-0.0215828 0.0948158 0)
(-0.0294984 0.0978397 0)
(-0.0371782 0.0998181 0)
(-0.0449678 0.102421 0)
(-0.053381 0.105915 0)
(-0.0629883 0.109261 0)
(-0.074332 0.109809 0)
(-0.0877876 0.10312 0)
(-0.103293 0.0835608 0)
(-0.119938 0.0458893 0)
(-0.13552 -0.0128131 0)
(-0.147763 -0.091316 0)
(-0.152807 -0.181027 0)
(-0.145808 -0.265437 0)
(-0.121059 -0.314905 0)
(-0.0777574 -0.28219 0)
(-0.023054 -0.119998 0)
(-0.00505234 0.0318304 0)
(-0.0139678 0.0726292 0)
(-0.0219779 0.0978012 0)
(-0.0274599 0.110464 0)
(-0.0308568 0.115548 0)
(-0.0323173 0.117663 0)
(-0.0318185 0.119752 0)
(-0.029398 0.122983 0)
(-0.0253249 0.127021 0)
(-0.0202499 0.129742 0)
(-0.015243 0.127265 0)
(-0.0117488 0.114211 0)
(-0.0117672 0.0844919 0)
(-0.0177086 0.0324534 0)
(-0.0308782 -0.0459543 0)
(-0.049375 -0.149895 0)
(-0.0687191 -0.269222 0)
(-0.0801612 -0.378026 0)
(-0.0764501 -0.415228 0)
(-0.0325869 -0.259081 0)
(-0.0212109 0.10112 0)
(-0.0496156 0.132773 0)
(-0.0604043 0.120925 0)
(-0.0565923 0.109239 0)
(-0.0452824 0.100401 0)
(-0.0295925 0.0936232 0)
(-0.0109739 0.0891462 0)
(0.0101115 0.0869837 0)
(0.033398 0.0864789 0)
(0.0583331 0.08616 0)
(0.0841602 0.0836594 0)
(0.109324 0.0757162 0)
(0.131257 0.0585258 0)
(0.145528 0.0283968 0)
(0.146307 -0.0173246 0)
(0.134343 -0.0804453 0)
(0.107456 -0.167024 0)
(0.0659447 -0.28168 0)
(0.00308429 -0.38854 0)
(-0.00747589 -0.338908 0)
(0.0775639 0.0855632 0)
(0.0868197 0.107684 0)
(0.148968 0.099859 0)
(0.207949 0.0886156 0)
(0.255389 0.078035 0)
(0.295232 0.0686395 0)
(0.330767 0.0605742 0)
(0.36365 0.0539363 0)
(0.394647 0.0485425 0)
(0.42417 0.0441132 0)
(0.451811 0.0400255 0)
(0.477005 0.0355759 0)
(0.497093 0.0293682 0)
(0.510494 0.0206723 0)
(0.510372 0.00746233 0)
(0.496203 -0.00921237 0)
(0.453241 -0.0329858 0)
(0.385756 -0.0588233 0)
(0.24874 -0.096287 0)
(0.132539 -0.133533 0)
)
;

boundaryField
{
    movingWall
    {
        type            fixedValue;
        value           uniform (1 0 0);
    }
    fixedWalls
    {
        type            noSlip;
    }
    frontAndBack
    {
        type            empty;
    }
}


// ************************************************************************* //
