/*--------------------------------*- C++ -*----------------------------------*\
  =========                 |
  \\      /  F ield         | OpenFOAM: The Open Source CFD Toolbox
   \\    /   O peration     | Website:  https://openfoam.org
    \\  /    A nd           | Version:  7
     \\/     M anipulation  |
\*---------------------------------------------------------------------------*/
FoamFile
{
    version     2.0;
    format      ascii;
    class       volScalarField;
    location    "0.4";
    object      p;
}
// * * * * * * * * * * * * * * * * * * * * * * * * * * * * * * * * * * * * * //

dimensions      [0 2 -2 0 0 0 0];

internalField   nonuniform List<scalar> 
400
(
-6.34797e-09
-6.02818e-05
-4.88354e-05
3.76962e-05
0.000200143
0.000439282
0.000756591
0.00115415
0.00163285
0.00218965
0.00281448
0.00348697
0.00417605
0.00483374
0.00540518
0.00583668
0.00609289
0.00617527
0.00612672
0.00599984
6.20166e-05
2.43443e-07
2.54832e-05
0.000122981
0.000288045
0.000523152
0.000831398
0.00121562
0.00167703
0.00221301
0.00281429
0.0034622
0.00412561
0.00476034
0.00531233
0.00572882
0.00597627
0.00605923
0.00601765
0.00588901
4.11001e-05
-3.77562e-05
-1.28402e-05
8.59689e-05
0.000248331
0.000477068
0.000776565
0.00115128
0.00160446
0.00213595
0.00273919
0.00339781
0.00408165
0.0047433
0.00532161
0.00575307
0.0059952
0.00605286
0.00597577
0.00580847
-8.32005e-05
-0.000179781
-0.000160684
-6.63109e-05
8.89831e-05
0.000308419
0.000597944
0.000964427
0.00141444
0.00195196
0.00257456
0.00326872
0.00400798
0.00473704
0.00538065
0.00585384
0.00609445
0.00610538
0.00596072
0.0057347
-0.000328105
-0.000438318
-0.000426744
-0.000340636
-0.000196529
9.76038e-06
0.000286231
0.000642835
0.00109049
0.00163879
0.00229107
0.00303669
0.0038648
0.00470153
0.0054535
0.00600119
0.00624667
0.00618521
0.00593221
0.00561897
-0.000703244
-0.000824568
-0.000822509
-0.00074889
-0.000621366
-0.0004345
-0.000178002
0.000161581
0.00060025
0.00115482
0.00183998
0.00266204
0.00358806
0.0045715
0.00548801
0.00616182
0.00642939
0.00626388
0.00583926
0.00537438
-0.00121193
-0.00134373
-0.00135418
-0.00129868
-0.00119576
-0.001039
-0.000816151
-0.000510623
-0.000101371
0.000436447
0.0011295
0.00199742
0.0030312
0.00419642
0.00535007
0.00623824
0.00657741
0.00628455
0.00560555
0.00485612
-0.0018536
-0.00199652
-0.00202349
-0.0019935
-0.00192652
-0.00181613
-0.0016495
-0.00140867
-0.00106962
-0.000601699
3.23444e-05
0.000869726
0.00193274
0.00325244
0.00470008
0.00594118
0.00649208
0.00612659
0.00513281
0.00384931
-0.00262451
-0.00277997
-0.00282799
-0.00283204
-0.00281499
-0.00277242
-0.00269378
-0.0025638
-0.00236149
-0.00205979
-0.00162442
-0.00100444
-0.000118922
0.00109407
0.00272665
0.00445437
0.00556464
0.005491
0.00430132
0.00209285
-0.00351769
-0.00368738
-0.00376015
-0.00380585
-0.00385282
-0.00390188
-0.00394934
-0.00398993
-0.00401753
-0.00402811
-0.00402486
-0.00400604
-0.00388791
-0.00339766
-0.00215537
-4.1553e-05
0.00223499
0.00350437
0.00280114
-0.000432274
-0.00452333
-0.00470866
-0.00480655
-0.00489675
-0.00501702
-0.00517768
-0.00538789
-0.0056623
-0.00602734
-0.00653394
-0.00728296
-0.00842885
-0.0100073
-0.0115175
-0.0118209
-0.00995402
-0.00602718
-0.00174786
-0.000122446
-0.00286878
-0.00563068
-0.00583188
-0.00594803
-0.00607491
-0.00626563
-0.00654461
-0.00693943
-0.00749439
-0.00828691
-0.00945817
-0.011271
-0.0141375
-0.0183133
-0.0230693
-0.0262061
-0.0256581
-0.0204056
-0.0120221
-0.00531094
-0.00401964
-0.0068328
-0.00704723
-0.00716145
-0.00729882
-0.0075363
-0.00791588
-0.00848586
-0.00932412
-0.0105676
-0.0124642
-0.015459
-0.0202179
-0.0271797
-0.0354993
-0.042191
-0.0436083
-0.0379366
-0.0259842
-0.0127897
-0.004804
-0.00813646
-0.0083544
-0.00842351
-0.00851754
-0.0087497
-0.00917937
-0.00987081
-0.0109283
-0.0125359
-0.0150225
-0.0189574
-0.0251432
-0.0340224
-0.044659
-0.053842
-0.0569447
-0.051903
-0.0385922
-0.0210537
-0.00675748
-0.00958072
-0.00977616
-0.00971709
-0.00967613
-0.00982003
-0.0102174
-0.0109351
-0.0120867
-0.0138742
-0.016649
-0.0209975
-0.0277202
-0.0370878
-0.048221
-0.0579437
-0.0617465
-0.0576047
-0.0448266
-0.0265463
-0.00806763
-0.0112738
-0.0113733
-0.0110256
-0.0107149
-0.0106681
-0.0109358
-0.0115663
-0.0126656
-0.0144315
-0.0171677
-0.0213819
-0.027894
-0.0367257
-0.0468536
-0.0554023
-0.0588864
-0.0554049
-0.0432723
-0.0256896
-0.00253289
-0.0135463
-0.013337
-0.0123844
-0.0115971
-0.011243
-0.0112886
-0.0117319
-0.0126591
-0.0142765
-0.0166124
-0.0205925
-0.0264252
-0.0341252
-0.042662
-0.0495856
-0.0518365
-0.0474349
-0.0345376
-0.0141615
0.0207644
-0.0172316
-0.0157743
-0.0135278
-0.0121614
-0.0114995
-0.0113036
-0.0115208
-0.0122043
-0.0135232
-0.0157212
-0.0192817
-0.0244613
-0.0311559
-0.0382913
-0.0436098
-0.0437087
-0.0356656
-0.0156684
0.018678
0.0765776
-0.0215347
-0.0196594
-0.0155854
-0.0128529
-0.0115878
-0.0110337
-0.0109993
-0.011481
-0.0126368
-0.0147027
-0.0180445
-0.0228069
-0.0287879
-0.034712
-0.0381732
-0.0347909
-0.0190848
0.0171706
0.0804643
0.176758
-0.0542437
-0.0209542
-0.0103067
-0.00816365
-0.00765429
-0.00749624
-0.007789
-0.00863477
-0.010171
-0.0125596
-0.0161197
-0.020863
-0.0264836
-0.0313674
-0.0326672
-0.0247332
0.000346016
0.0577944
0.158963
0.303279
)
;

boundaryField
{
    movingWall
    {
        type            zeroGradient;
    }
    fixedWalls
    {
        type            zeroGradient;
    }
    frontAndBack
    {
        type            empty;
    }
}


// ************************************************************************* //
