/*--------------------------------*- C++ -*----------------------------------*\
  =========                 |
  \\      /  F ield         | OpenFOAM: The Open Source CFD Toolbox
   \\    /   O peration     | Website:  https://openfoam.org
    \\  /    A nd           | Version:  7
     \\/     M anipulation  |
\*---------------------------------------------------------------------------*/
FoamFile
{
    version     2.0;
    format      ascii;
    class       surfaceScalarField;
    location    "0.4";
    object      phi;
}
// * * * * * * * * * * * * * * * * * * * * * * * * * * * * * * * * * * * * * //

dimensions      [0 3 -1 0 0 0 0];

internalField   nonuniform List<scalar> 
760
(
-1.60881e-08
1.60887e-08
-7.0957e-08
5.48688e-08
-1.47284e-07
7.63265e-08
-2.31725e-07
8.44408e-08
-3.17878e-07
8.61532e-08
-4.02766e-07
8.48886e-08
-4.84272e-07
8.15056e-08
-5.59731e-07
7.5459e-08
-6.25267e-07
6.55365e-08
-6.75582e-07
5.03152e-08
-7.04123e-07
2.85411e-08
-7.04036e-07
-8.73156e-11
-6.6838e-07
-3.56555e-08
-5.94109e-07
-7.42716e-08
-4.83636e-07
-1.10473e-07
-3.47669e-07
-1.35966e-07
-2.05905e-07
-1.41764e-07
-8.46897e-08
-1.21215e-07
-1.14472e-08
-7.32426e-08
-1.14474e-08
-5.92146e-08
7.53032e-08
-1.89051e-07
1.84705e-07
-3.55968e-07
2.43243e-07
-5.384e-07
2.66873e-07
-7.23707e-07
2.7146e-07
-9.04359e-07
2.6554e-07
-1.0745e-06
2.51651e-07
-1.22773e-06
2.28682e-07
-1.35591e-06
1.93722e-07
-1.44893e-06
1.43332e-07
-1.49507e-06
7.46809e-08
-1.48238e-06
-1.27786e-08
-1.40048e-06
-1.17555e-07
-1.24513e-06
-2.29621e-07
-1.02235e-06
-3.33254e-07
-7.52428e-07
-4.05884e-07
-4.71027e-07
-4.23166e-07
-2.24248e-07
-3.67995e-07
-5.69744e-08
-2.40517e-07
-6.84218e-08
-8.94774e-08
1.64781e-07
-2.69993e-07
3.6522e-07
-4.94851e-07
4.68101e-07
-7.37268e-07
5.0929e-07
-9.81671e-07
5.15862e-07
-1.21841e-06
5.02275e-07
-1.43979e-06
4.73036e-07
-1.63759e-06
4.26485e-07
-1.80172e-06
3.57847e-07
-1.91975e-06
2.61367e-07
-1.97736e-06
1.32285e-07
-1.95941e-06
-3.07284e-08
-1.85245e-06
-2.24509e-07
-1.64988e-06
-4.3219e-07
-1.3579e-06
-6.25237e-07
-1.00187e-06
-7.61918e-07
-6.29053e-07
-7.9598e-07
-3.0185e-07
-6.95198e-07
-7.94011e-08
-4.62965e-07
-1.47823e-07
-1.07443e-07
2.72223e-07
-3.2096e-07
5.78737e-07
-5.83599e-07
7.3074e-07
-8.6452e-07
7.90211e-07
-1.14679e-06
7.98129e-07
-1.42032e-06
7.75813e-07
-1.67726e-06
7.29973e-07
-1.90911e-06
6.58332e-07
-2.10517e-06
5.53912e-07
-2.25173e-06
4.07925e-07
-2.33195e-06
2.12509e-07
-2.32735e-06
-3.53345e-08
-2.21733e-06
-3.34525e-07
-1.9889e-06
-6.60617e-07
-1.6434e-06
-9.70742e-07
-1.20832e-06
-1.197e-06
-7.45414e-07
-1.25889e-06
-3.42638e-07
-1.09797e-06
-8.1388e-08
-7.24216e-07
-2.29211e-07
-1.17955e-07
3.90178e-07
-3.52833e-07
8.13615e-07
-6.40912e-07
1.01882e-06
-9.48553e-07
1.09785e-06
-1.25846e-06
1.10804e-06
-1.5613e-06
1.07865e-06
-1.85026e-06
1.01893e-06
-2.11786e-06
9.25932e-07
-2.35393e-06
7.89985e-07
-2.54412e-06
5.98115e-07
-2.66837e-06
3.36762e-07
-2.7053e-06
1.5927e-09
-2.61986e-06
-4.19965e-07
-2.38768e-06
-8.92801e-07
-1.99587e-06
-1.36255e-06
-1.46777e-06
-1.72509e-06
-8.83699e-07
-1.84296e-06
-3.76289e-07
-1.60538e-06
-7.05627e-08
-1.02994e-06
-2.99773e-07
-1.24422e-07
5.146e-07
-3.73974e-07
1.06317e-06
-6.80645e-07
1.32549e-06
-1.00909e-06
1.42629e-06
-1.34245e-06
1.4414e-06
-1.67305e-06
1.40925e-06
-1.99634e-06
1.34222e-06
-2.30724e-06
1.23683e-06
-2.59762e-06
1.08037e-06
-2.85403e-06
8.54519e-07
-3.05551e-06
5.38249e-07
-3.16811e-06
1.14189e-07
-3.15344e-06
-4.34631e-07
-2.95622e-06
-1.09003e-06
-2.53445e-06
-1.78432e-06
-1.89131e-06
-2.36823e-06
-1.12413e-06
-2.61014e-06
-4.38975e-07
-2.29054e-06
-5.20853e-08
-1.41683e-06
-3.51859e-07
-1.28776e-07
6.43376e-07
-3.89434e-07
1.32382e-06
-7.11011e-07
1.64707e-06
-1.05713e-06
1.77241e-06
-1.41203e-06
1.7963e-06
-1.77058e-06
1.76779e-06
-2.13174e-06
1.70338e-06
-2.49462e-06
1.59971e-06
-2.85556e-06
1.44132e-06
-3.20504e-06
1.204e-06
-3.52329e-06
8.56501e-07
-3.77359e-06
3.6449e-07
-3.90198e-06
-3.06246e-07
-3.8139e-06
-1.17811e-06
-3.41069e-06
-2.18752e-06
-2.64164e-06
-3.13729e-06
-1.6035e-06
-3.64828e-06
-6.0454e-07
-3.28949e-06
-3.99069e-08
-1.98147e-06
-3.91766e-07
-1.31921e-07
7.75297e-07
-4.01644e-07
1.59355e-06
-7.35662e-07
1.98108e-06
-1.09682e-06
2.13357e-06
-1.47089e-06
2.17037e-06
-1.85611e-06
2.15301e-06
-2.25641e-06
2.10368e-06
-2.67744e-06
2.02074e-06
-3.12371e-06
1.88759e-06
-3.5952e-06
1.67549e-06
-4.08124e-06
1.34255e-06
-4.54623e-06
8.29479e-07
-4.93065e-06
7.81678e-08
-5.07455e-06
-1.0342e-06
-4.79208e-06
-2.47e-06
-3.92882e-06
-4.00055e-06
-2.53958e-06
-5.03752e-06
-1.02875e-06
-4.80032e-06
-7.56649e-08
-2.93455e-06
-4.67431e-07
-1.34269e-07
9.09567e-07
-4.11627e-07
1.87091e-06
-7.55631e-07
2.32509e-06
-1.12811e-06
2.50605e-06
-1.51654e-06
2.5588e-06
-1.92324e-06
2.55971e-06
-2.35848e-06
2.53893e-06
-2.83715e-06
2.49941e-06
-3.3767e-06
2.42714e-06
-3.99416e-06
2.29294e-06
-4.69851e-06
2.0469e-06
-5.47202e-06
1.60299e-06
-6.21287e-06
8.19016e-07
-6.74576e-06
-5.01308e-07
-6.72891e-06
-2.48684e-06
-5.88081e-06
-4.84866e-06
-4.1606e-06
-6.75772e-06
-1.96758e-06
-6.99334e-06
-2.6969e-07
-4.63245e-06
-7.37121e-07
-1.36333e-07
1.0459e-06
-4.20399e-07
2.15497e-06
-7.7148e-07
2.67617e-06
-1.14963e-06
2.8842e-06
-1.54387e-06
2.95305e-06
-1.96083e-06
2.97666e-06
-2.41791e-06
2.99602e-06
-2.94104e-06
3.02253e-06
-3.56425e-06
3.05036e-06
-4.32773e-06
3.05642e-06
-5.26736e-06
2.98653e-06
-6.38226e-06
2.71788e-06
-7.56352e-06
2.00028e-06
-8.53901e-06
4.7418e-07
-8.90134e-06
-2.12451e-06
-8.26486e-06
-5.48513e-06
-6.45795e-06
-8.56463e-06
-3.65728e-06
-9.79402e-06
-8.47819e-07
-7.44191e-06
-1.58494e-06
-1.39357e-07
1.18526e-06
-4.30414e-07
2.44603e-06
-7.85464e-07
3.03122e-06
-1.1615e-06
3.26024e-06
-1.5486e-06
3.34015e-06
-1.95722e-06
3.38528e-06
-2.41123e-06
3.45003e-06
-2.94685e-06
3.55815e-06
-3.61401e-06
3.71752e-06
-4.47434e-06
3.91675e-06
-5.58456e-06
4.09674e-06
-6.95005e-06
4.08338e-06
-8.44875e-06
3.49898e-06
-9.7646e-06
1.79003e-06
-1.04802e-05
-1.40893e-06
-1.02771e-05
-5.68823e-06
-8.84895e-06
-9.99276e-06
-5.93388e-06
-1.27091e-05
-2.02171e-06
-1.13541e-05
-3.60665e-06
-1.46075e-07
1.33133e-06
-4.47159e-07
2.74711e-06
-8.03741e-07
3.3878e-06
-1.16816e-06
3.62465e-06
-1.53098e-06
3.70297e-06
-1.90517e-06
3.75947e-06
-2.31814e-06
3.863e-06
-2.81112e-06
4.05112e-06
-3.44098e-06
4.34738e-06
-4.27661e-06
4.75239e-06
-5.37605e-06
5.19618e-06
-6.73246e-06
5.43978e-06
-8.21438e-06
4.9809e-06
-9.58263e-06
3.15828e-06
-1.04538e-05
-5.37813e-07
-1.07996e-05
-5.34237e-06
-1.0168e-05
-1.06244e-05
-7.88274e-06
-1.49944e-05
-3.57918e-06
-1.56576e-05
-7.18583e-06
-1.61792e-07
1.49312e-06
-4.81091e-07
3.06641e-06
-8.38679e-07
3.74539e-06
-1.18103e-06
3.96701e-06
-1.49952e-06
4.02146e-06
-1.80798e-06
4.06793e-06
-2.1322e-06
4.18722e-06
-2.5085e-06
4.42742e-06
-2.98419e-06
4.82306e-06
-3.61169e-06
5.3799e-06
-4.42706e-06
6.01155e-06
-5.41318e-06
6.4259e-06
-6.47708e-06
6.0448e-06
-7.49824e-06
4.17945e-06
-8.46185e-06
4.25799e-07
-9.20569e-06
-4.59854e-06
-9.46582e-06
-1.03642e-05
-8.3535e-06
-1.61067e-05
-4.79335e-06
-1.92178e-05
-1.19792e-05
-1.96172e-07
1.6893e-06
-5.50312e-07
3.42055e-06
-9.11172e-07
4.10625e-06
-1.22056e-06
4.2764e-06
-1.47392e-06
4.27481e-06
-1.68537e-06
4.27939e-06
-1.87386e-06
4.37571e-06
-2.06092e-06
4.61448e-06
-2.27003e-06
5.03218e-06
-2.52229e-06
5.63215e-06
-2.82786e-06
6.31712e-06
-3.18357e-06
6.78161e-06
-3.58575e-06
6.44698e-06
-4.08633e-06
4.68003e-06
-4.87511e-06
1.21458e-06
-5.88253e-06
-3.59112e-06
-6.91249e-06
-9.33426e-06
-7.07753e-06
-1.59417e-05
-4.87302e-06
-2.14223e-05
-1.68522e-05
-2.66393e-07
1.95569e-06
-6.84673e-07
3.83883e-06
-1.05282e-06
4.4744e-06
-1.31638e-06
4.53996e-06
-1.48452e-06
4.44295e-06
-1.57386e-06
4.36872e-06
-1.5937e-06
4.39555e-06
-1.54623e-06
4.56701e-06
-1.42766e-06
4.91361e-06
-1.22925e-06
5.43374e-06
-9.46842e-07
6.03471e-06
-6.19857e-07
6.45462e-06
-3.74396e-07
6.20152e-06
-3.88975e-07
4.69461e-06
-8.68517e-07
1.69412e-06
-1.94969e-06
-2.50995e-06
-3.5104e-06
-7.77355e-06
-4.73248e-06
-1.47196e-05
-3.94775e-06
-2.2207e-05
-2.08e-05
-4.05225e-07
2.36091e-06
-9.33637e-07
4.36724e-06
-1.30542e-06
4.84618e-06
-1.50147e-06
4.73601e-06
-1.56376e-06
4.50524e-06
-1.51451e-06
4.31948e-06
-1.35327e-06
4.23431e-06
-1.0645e-06
4.27824e-06
-6.24408e-07
4.47351e-06
6.01028e-09
4.80332e-06
8.08818e-07
5.23191e-06
1.7248e-06
5.53864e-06
2.57467e-06
5.35165e-06
3.04518e-06
4.2241e-06
2.80406e-06
1.93525e-06
1.72887e-06
-1.43476e-06
-2.58178e-09
-6.04211e-06
-2.0069e-06
-1.27153e-05
-2.63994e-06
-2.1574e-05
-2.34399e-05
-6.80466e-07
3.04138e-06
-1.37914e-06
5.06592e-06
-1.72518e-06
5.19221e-06
-1.80592e-06
4.81675e-06
-1.72293e-06
4.42225e-06
-1.50519e-06
4.10173e-06
-1.1472e-06
3.87632e-06
-6.24908e-07
3.75595e-06
9.94305e-08
3.74917e-06
1.02903e-06
3.87372e-06
2.1904e-06
4.07054e-06
3.50842e-06
4.22062e-06
4.76263e-06
4.09743e-06
5.6048e-06
3.38193e-06
5.68104e-06
1.85901e-06
4.84227e-06
-5.95987e-07
3.11342e-06
-4.31325e-06
8.58653e-07
-1.04605e-05
-7.37213e-07
-1.99781e-05
-2.41771e-05
-1.272e-06
4.31337e-06
-2.20793e-06
6.00186e-06
-2.39349e-06
5.37777e-06
-2.13739e-06
4.56064e-06
-1.6717e-06
3.95657e-06
-1.06774e-06
3.49777e-06
-3.41024e-07
3.1496e-06
5.17363e-07
2.89756e-06
1.52094e-06
2.74559e-06
2.71092e-06
2.68375e-06
4.08524e-06
2.69622e-06
5.59831e-06
2.70756e-06
7.07651e-06
2.61923e-06
8.23436e-06
2.22408e-06
8.72447e-06
1.36889e-06
8.33572e-06
-2.0723e-07
7.02521e-06
-3.00275e-06
4.65686e-06
-8.09215e-06
1.64075e-06
-1.6962e-05
-2.25364e-05
-4.04496e-06
8.35834e-06
-3.38599e-06
5.34288e-06
-1.47289e-06
3.46467e-06
3.21844e-07
2.76591e-06
1.96673e-06
2.31168e-06
3.51462e-06
1.94988e-06
4.99553e-06
1.66869e-06
6.43352e-06
1.45957e-06
7.85877e-06
1.32034e-06
9.3137e-06
1.22881e-06
1.08232e-05
1.18672e-06
1.23852e-05
1.14557e-06
1.39169e-05
1.08747e-06
1.52486e-05
8.92383e-07
1.60904e-05
5.27154e-07
1.60286e-05
-1.45431e-07
1.48522e-05
-1.82634e-06
1.17882e-05
-5.02818e-06
5.93659e-06
-1.11104e-05
-1.65998e-05
8.35834e-06
1.37012e-05
1.71659e-05
1.99318e-05
2.22435e-05
2.41934e-05
2.58621e-05
2.73216e-05
2.8642e-05
2.98708e-05
3.10575e-05
3.22031e-05
3.32906e-05
3.41829e-05
3.47101e-05
3.45647e-05
3.27383e-05
2.77101e-05
1.65998e-05
)
;

boundaryField
{
    movingWall
    {
        type            calculated;
        value           uniform 0;
    }
    fixedWalls
    {
        type            calculated;
        value           uniform 0;
    }
    frontAndBack
    {
        type            empty;
        value           nonuniform 0();
    }
}


// ************************************************************************* //
