/*--------------------------------*- C++ -*----------------------------------*\
  =========                 |
  \\      /  F ield         | OpenFOAM: The Open Source CFD Toolbox
   \\    /   O peration     | Website:  https://openfoam.org
    \\  /    A nd           | Version:  7
     \\/     M anipulation  |
\*---------------------------------------------------------------------------*/
FoamFile
{
    version     2.0;
    format      ascii;
    class       volVectorField;
    location    "0.4";
    object      U;
}
// * * * * * * * * * * * * * * * * * * * * * * * * * * * * * * * * * * * * * //

dimensions      [0 1 -1 0 0 0 0];

internalField   nonuniform List<vector> 
400
(
(-6.33673e-05 5.22891e-05 0)
(-0.000725945 0.000364759 0)
(-0.00212104 0.000543647 0)
(-0.00377274 0.000608527 0)
(-0.00549804 0.000624031 0)
(-0.00722012 0.000621573 0)
(-0.00889472 0.000608075 0)
(-0.0104773 0.000577936 0)
(-0.011904 0.000519799 0)
(-0.0130829 0.000420276 0)
(-0.013894 0.000266852 0)
(-0.0141997 5.17405e-05 0)
(-0.0138563 -0.000219705 0)
(-0.0127561 -0.000526623 0)
(-0.0108855 -0.000820738 0)
(-0.00837216 -0.00103145 0)
(-0.00552277 -0.00108057 0)
(-0.00279185 -0.000907284 0)
(-0.00069742 -0.000497308 0)
(6.22065e-05 1.27898e-05 0)
(-0.000416744 0.000746413 0)
(-0.00220482 0.00209026 0)
(-0.0053162 0.00282935 0)
(-0.00890981 0.00312351 0)
(-0.0126339 0.00318779 0)
(-0.0163232 0.00313553 0)
(-0.0198586 0.00299768 0)
(-0.023124 0.00275738 0)
(-0.0259764 0.00237461 0)
(-0.0282328 0.00180233 0)
(-0.0296711 0.00100015 0)
(-0.030047 -4.84801e-05 0)
(-0.0291256 -0.00131033 0)
(-0.0267454 -0.0026791 0)
(-0.0229109 -0.00395287 0)
(-0.0178783 -0.00484727 0)
(-0.0122094 -0.00505629 0)
(-0.00671455 -0.00435971 0)
(-0.00233856 -0.00274341 0)
(-0.000277599 -0.000611376 0)
(-0.000668756 0.00230989 0)
(-0.00323724 0.00531111 0)
(-0.00747996 0.00688802 0)
(-0.0122854 0.00752757 0)
(-0.0172144 0.00764402 0)
(-0.0220652 0.00746138 0)
(-0.0266833 0.00704827 0)
(-0.0309166 0.00637728 0)
(-0.0345853 0.00537297 0)
(-0.0374636 0.00394588 0)
(-0.0392797 0.00202287 0)
(-0.0397308 -0.000417834 0)
(-0.0385166 -0.00330399 0)
(-0.0354153 -0.006391 0)
(-0.0304036 -0.00924259 0)
(-0.0237832 -0.0112427 0)
(-0.0162787 -0.0117248 0)
(-0.00898377 -0.010227 0)
(-0.00318364 -0.00677503 0)
(-0.000414926 -0.00208036 0)
(-0.00080991 0.00431906 0)
(-0.00387014 0.00933079 0)
(-0.00885748 0.011858 0)
(-0.0144466 0.0128602 0)
(-0.0201446 0.0130057 0)
(-0.0257443 0.0126473 0)
(-0.0310879 0.011896 0)
(-0.0360202 0.0107129 0)
(-0.0403537 0.00898291 0)
(-0.0438447 0.00656522 0)
(-0.0461856 0.00333996 0)
(-0.0470168 -0.000737447 0)
(-0.0459301 -0.00557854 0)
(-0.0425615 -0.0107959 0)
(-0.0367635 -0.015676 0)
(-0.0287901 -0.0191594 0)
(-0.0195168 -0.0200488 0)
(-0.0104504 -0.0175072 0)
(-0.00341363 -0.0116493 0)
(-0.000326795 -0.00373727 0)
(-0.00088538 0.00659083 0)
(-0.00425084 0.0138493 0)
(-0.00973347 0.0174029 0)
(-0.0158571 0.0187805 0)
(-0.0220984 0.0189551 0)
(-0.0282637 0.0184273 0)
(-0.0342164 0.0173552 0)
(-0.0398238 0.0156869 0)
(-0.0449157 0.0132587 0)
(-0.0492492 0.00985897 0)
(-0.0524868 0.00528231 0)
(-0.0542036 -0.000588994 0)
(-0.0538238 -0.00764601 0)
(-0.0507218 -0.0154705 0)
(-0.044467 -0.0230298 0)
(-0.0350905 -0.0286475 0)
(-0.0235615 -0.0302671 0)
(-0.0120238 -0.0263594 0)
(-0.00331376 -0.0172069 0)
(-4.30091e-05 -0.00526236 0)
(-0.000926542 0.00902371 0)
(-0.00449151 0.0187102 0)
(-0.0103259 0.0233675 0)
(-0.0168507 0.0251551 0)
(-0.0235298 0.0253953 0)
(-0.0301985 0.0247592 0)
(-0.036762 0.0234607 0)
(-0.0431361 0.0214346 0)
(-0.0491987 0.0184594 0)
(-0.0547433 0.0142275 0)
(-0.0594285 0.00840466 0)
(-0.0627127 0.000727993 0)
(-0.0638758 -0.00882206 0)
(-0.0619397 -0.0198931 0)
(-0.0558526 -0.0311639 0)
(-0.0450795 -0.0401395 0)
(-0.0304345 -0.0433198 0)
(-0.014889 -0.0377428 0)
(-0.00315125 -0.0238153 0)
(0.000477466 -0.00644387 0)
(-0.000950026 0.01156 0)
(-0.00465837 0.0238204 0)
(-0.0107671 0.0296589 0)
(-0.0176214 0.0319083 0)
(-0.0246844 0.0322817 0)
(-0.0318338 0.0316468 0)
(-0.0390381 0.0302881 0)
(-0.0462917 0.028134 0)
(-0.0535621 0.0249022 0)
(-0.0607315 0.0201711 0)
(-0.067519 0.0134317 0)
(-0.0733858 0.00417008 0)
(-0.0774606 -0.00799831 0)
(-0.0782394 -0.022994 0)
(-0.0736693 -0.0394599 0)
(-0.0620127 -0.0539603 0)
(-0.0433328 -0.0606649 0)
(-0.0213071 -0.0536163 0)
(-0.00358891 -0.0326131 0)
(0.00127993 -0.00719523 0)
(-0.000963135 0.0141688 0)
(-0.00478325 0.0291281 0)
(-0.0111197 0.0362208 0)
(-0.0182503 0.0389886 0)
(-0.0256438 0.0395785 0)
(-0.0332318 0.0390874 0)
(-0.0410678 0.0378948 0)
(-0.049261 0.0359433 0)
(-0.057927 0.0329053 0)
(-0.0671278 0.0282473 0)
(-0.0767793 0.0212448 0)
(-0.0865125 0.0109904 0)
(-0.0954328 -0.00350124 0)
(-0.101393 -0.0227793 0)
(-0.100749 -0.0463058 0)
(-0.0896924 -0.0697795 0)
(-0.0667247 -0.0839522 0)
(-0.0354347 -0.0772853 0)
(-0.00655056 -0.0463094 0)
(0.00221966 -0.00791793 0)
(-0.00096938 0.0168309 0)
(-0.00488089 0.034601 0)
(-0.0114074 0.0430076 0)
(-0.0187525 0.0463372 0)
(-0.0263887 0.0472202 0)
(-0.0343096 0.0470246 0)
(-0.0426724 0.0462628 0)
(-0.0517386 0.0449347 0)
(-0.0618406 0.0427183 0)
(-0.0733452 0.0390201 0)
(-0.0865791 0.0329274 0)
(-0.101573 0.0230586 0)
(-0.117385 0.00740069 0)
(-0.13131 -0.0163366 0)
(-0.13765 -0.0491137 0)
(-0.129642 -0.0862423 0)
(-0.103944 -0.114026 0)
(-0.0625737 -0.112703 0)
(-0.0165287 -0.0702818 0)
(0.00250688 -0.0105729 0)
(-0.000974352 0.0195345 0)
(-0.00496855 0.0402151 0)
(-0.0116511 0.0499667 0)
(-0.0191267 0.0538632 0)
(-0.0268623 0.0550782 0)
(-0.0349141 0.0553021 0)
(-0.0435513 0.0552326 0)
(-0.0532091 0.0549951 0)
(-0.0644858 0.0543672 0)
(-0.0781418 0.0528068 0)
(-0.0950501 0.0492915 0)
(-0.115877 0.0418495 0)
(-0.139968 0.0267582 0)
(-0.163416 -0.00140105 0)
(-0.178247 -0.045983 0)
(-0.175806 -0.101682 0)
(-0.151596 -0.149834 0)
(-0.104474 -0.162194 0)
(-0.0407189 -0.113046 0)
(-0.000252302 -0.0203374 0)
(-0.000992172 0.0222836 0)
(-0.00508669 0.0459608 0)
(-0.0119045 0.0570369 0)
(-0.0194054 0.061433 0)
(-0.0270339 0.0629403 0)
(-0.034901 0.0636285 0)
(-0.0433749 0.0644389 0)
(-0.0530476 0.0657047 0)
(-0.0647651 0.0674216 0)
(-0.0796529 0.0692266 0)
(-0.0990743 0.0700062 0)
(-0.12426 0.066862 0)
(-0.154771 0.0535475 0)
(-0.18563 0.0207844 0)
(-0.207204 -0.0375057 0)
(-0.211569 -0.114366 0)
(-0.194886 -0.187369 0)
(-0.151945 -0.223539 0)
(-0.0815523 -0.181828 0)
(-0.0102648 -0.0455916 0)
(-0.00105384 0.0251196 0)
(-0.00532281 0.0518658 0)
(-0.0122923 0.0641594 0)
(-0.0197046 0.068873 0)
(-0.0269632 0.0705065 0)
(-0.0342199 0.0715607 0)
(-0.0419018 0.0732636 0)
(-0.0506768 0.0762212 0)
(-0.0614989 0.0807363 0)
(-0.0756284 0.08669 0)
(-0.0945696 0.0927697 0)
(-0.119751 0.0947385 0)
(-0.15087 0.0834888 0)
(-0.182633 0.0466061 0)
(-0.205587 -0.0232121 0)
(-0.216112 -0.119005 0)
(-0.211511 -0.216674 0)
(-0.18331 -0.285204 0)
(-0.123226 -0.270731 0)
(-0.0290967 -0.0972069 0)
(-0.00122036 0.028161 0)
(-0.005843 0.0580344 0)
(-0.0130535 0.0713008 0)
(-0.0202731 0.0759822 0)
(-0.0268614 0.0774028 0)
(-0.0330083 0.0785203 0)
(-0.0391383 0.0808431 0)
(-0.0458506 0.085242 0)
(-0.0539518 0.09231 0)
(-0.0644409 0.102104 0)
(-0.0784546 0.11297 0)
(-0.0971714 0.119324 0)
(-0.120553 0.109934 0)
(-0.144955 0.0711394 0)
(-0.164794 -0.0040772 0)
(-0.179386 -0.109047 0)
(-0.187078 -0.223977 0)
(-0.178546 -0.32641 0)
(-0.140506 -0.358186 0)
(-0.0467709 -0.186027 0)
(-0.00160627 0.0316702 0)
(-0.00694009 0.0647079 0)
(-0.0145915 0.0784803 0)
(-0.021533 0.0825512 0)
(-0.0271342 0.0832186 0)
(-0.0316663 0.0838675 0)
(-0.0355004 0.0861957 0)
(-0.03902 0.0912267 0)
(-0.0426458 0.0997022 0)
(-0.0468178 0.111711 0)
(-0.0520505 0.12531 0)
(-0.0592933 0.134239 0)
(-0.0693013 0.126595 0)
(-0.0809366 0.0891534 0)
(-0.093379 0.0162473 0)
(-0.108977 -0.0855101 0)
(-0.127587 -0.205247 0)
(-0.138127 -0.333374 0)
(-0.127506 -0.420552 0)
(-0.048224 -0.296287 0)
(-0.00242392 0.0361742 0)
(-0.00911278 0.0723152 0)
(-0.0175403 0.0857339 0)
(-0.0241026 0.0883351 0)
(-0.0283715 0.0875405 0)
(-0.0308431 0.0870199 0)
(-0.0318287 0.0884742 0)
(-0.0314153 0.0928966 0)
(-0.029555 0.100999 0)
(-0.0261124 0.112808 0)
(-0.021069 0.126373 0)
(-0.0153594 0.135878 0)
(-0.0107593 0.130374 0)
(-0.00879038 0.0975652 0)
(-0.0126524 0.0323973 0)
(-0.0271522 -0.0585855 0)
(-0.0534913 -0.171265 0)
(-0.0791273 -0.312152 0)
(-0.0972452 -0.449033 0)
(-0.033905 -0.392253 0)
(-0.00409473 0.042843 0)
(-0.0132426 0.0818269 0)
(-0.022851 0.0933553 0)
(-0.0287313 0.0931445 0)
(-0.031202 0.0900037 0)
(-0.0312331 0.0875547 0)
(-0.0290826 0.0871913 0)
(-0.024542 0.089665 0)
(-0.0171899 0.0955232 0)
(-0.00652041 0.104609 0)
(0.00787343 0.115641 0)
(0.0250707 0.123801 0)
(0.0421325 0.120385 0)
(0.0550834 0.0947971 0)
(0.0589331 0.0416207 0)
(0.0476608 -0.0349905 0)
(0.018003 -0.13459 0)
(-0.0162689 -0.277578 0)
(-0.0617442 -0.453698 0)
(-0.0132076 -0.464652 0)
(-0.00748264 0.0534875 0)
(-0.0209726 0.0931904 0)
(-0.0319383 0.0996724 0)
(-0.0363214 0.0957721 0)
(-0.0360493 0.0900121 0)
(-0.032903 0.0852325 0)
(-0.0271079 0.0823589 0)
(-0.0183023 0.0818272 0)
(-0.00608003 0.0839803 0)
(0.0104563 0.0888415 0)
(0.031695 0.0955021 0)
(0.0564809 0.100647 0)
(0.0818459 0.0983206 0)
(0.102797 0.0806731 0)
(0.113101 0.0426144 0)
(0.107439 -0.0165966 0)
(0.080565 -0.101365 0)
(0.046737 -0.238217 0)
(-0.0207349 -0.436698 0)
(0.0157872 -0.504945 0)
(-0.0142279 0.0662996 0)
(-0.0351473 0.112207 0)
(-0.0491371 0.111184 0)
(-0.0471852 0.0981439 0)
(-0.0390397 0.0872186 0)
(-0.0280099 0.078851 0)
(-0.0145737 0.0727197 0)
(0.00133358 0.068677 0)
(0.0199706 0.066795 0)
(0.0419914 0.067151 0)
(0.06751 0.0690241 0)
(0.0961866 0.0705851 0)
(0.125393 0.0686385 0)
(0.151846 0.0579578 0)
(0.168063 0.0345075 0)
(0.171779 -0.00616027 0)
(0.150679 -0.0723518 0)
(0.124052 -0.189639 0)
(0.0446976 -0.38251 0)
(0.0668767 -0.487762 0)
(-0.0824623 0.140894 0)
(-0.0803581 0.117798 0)
(-0.0470607 0.0866974 0)
(-0.011522 0.0720901 0)
(0.0229991 0.0620927 0)
(0.0550906 0.0539364 0)
(0.0854387 0.0474434 0)
(0.114804 0.0425638 0)
(0.143222 0.0393333 0)
(0.172235 0.0374181 0)
(0.201032 0.0367383 0)
(0.231812 0.0361919 0)
(0.260412 0.0349637 0)
(0.289619 0.0299906 0)
(0.307856 0.0191538 0)
(0.319686 -0.00274772 0)
(0.29944 -0.0425184 0)
(0.277573 -0.118648 0)
(0.179308 -0.265493 0)
(0.162077 -0.375961 0)
(0.181748 0.122679 0)
(0.219158 0.0994555 0)
(0.300739 0.0715718 0)
(0.37043 0.054243 0)
(0.423692 0.0429851 0)
(0.466289 0.0347968 0)
(0.501677 0.0285752 0)
(0.533114 0.0237171 0)
(0.560141 0.0201172 0)
(0.58636 0.0172967 0)
(0.608667 0.0153943 0)
(0.63317 0.0137135 0)
(0.651288 0.0125493 0)
(0.673512 0.0105605 0)
(0.680067 0.00793991 0)
(0.689368 0.00199648 0)
(0.658529 -0.00797895 0)
(0.625176 -0.0288046 0)
(0.485461 -0.0687239 0)
(0.364528 -0.125276 0)
)
;

boundaryField
{
    movingWall
    {
        type            fixedValue;
        value           uniform (1 0 0);
    }
    fixedWalls
    {
        type            noSlip;
    }
    frontAndBack
    {
        type            empty;
    }
}


// ************************************************************************* //
