/*--------------------------------*- C++ -*----------------------------------*\
  =========                 |
  \\      /  F ield         | OpenFOAM: The Open Source CFD Toolbox
   \\    /   O peration     | Website:  https://openfoam.org
    \\  /    A nd           | Version:  7
     \\/     M anipulation  |
\*---------------------------------------------------------------------------*/
FoamFile
{
    version     2.0;
    format      ascii;
    class       volScalarField;
    location    "0.1";
    object      p;
}
// * * * * * * * * * * * * * * * * * * * * * * * * * * * * * * * * * * * * * //

dimensions      [0 2 -2 0 0 0 0];

internalField   nonuniform List<scalar> 
400
(
2.28116e-10
-2.89109e-06
-1.94777e-06
2.80548e-06
1.09939e-05
2.23034e-05
3.63399e-05
5.26067e-05
7.05297e-05
8.94804e-05
0.000108794
0.000127793
0.000145806
0.000162191
0.000176358
0.000187792
0.00019608
0.000200894
0.000201855
0.000198945
-1.47436e-06
-5.04738e-06
-4.20079e-06
6.75511e-07
9.02529e-06
2.05421e-05
3.48502e-05
5.1452e-05
6.97631e-05
8.91389e-05
0.000108896
0.000128334
0.000146762
0.000163518
0.000177997
0.000189677
0.00019816
0.000203121
0.000203994
0.000200397
-1.92357e-05
-2.38063e-05
-2.29929e-05
-1.73253e-05
-7.52497e-06
6.03132e-06
2.28975e-05
4.24854e-05
6.41059e-05
8.69985e-05
0.000110356
0.00013335
0.000155159
0.000174998
0.000192142
0.000205966
0.000215986
0.000221796
0.000222658
0.00021805
-5.39159e-05
-5.97421e-05
-5.86612e-05
-5.13502e-05
-3.87331e-05
-2.12922e-05
4.04161e-07
2.56069e-05
5.34371e-05
8.29236e-05
0.000113032
0.000142699
0.000170865
0.000196513
0.000218705
0.000236623
0.000249634
0.000257203
0.000258378
0.00025249
-0.000110127
-0.000117763
-0.000116121
-0.000106097
-8.89234e-05
-6.52416e-05
-3.5809e-05
-1.62399e-06
3.61397e-05
7.61806e-05
0.000117108
0.000157484
0.000195873
0.00023089
0.000261247
0.000285822
0.000303736
0.000314249
0.00031608
0.000308343
-0.000195497
-0.000205713
-0.000203129
-0.000188971
-0.00016492
-0.000131852
-9.07965e-05
-4.3114e-05
9.59127e-06
6.55331e-05
0.000122793
0.000179375
0.000233276
0.000282549
0.000325377
0.000360161
0.00038564
0.000400757
0.000403731
0.000393362
-0.000321435
-0.000335259
-0.00033121
-0.00031098
-0.000276895
-0.000230157
-0.000172174
-0.00010481
-3.02732e-05
4.8962e-05
0.000130221
0.000210697
0.000287552
0.000358004
0.000419434
0.000469518
0.000506405
0.000528541
0.000533409
0.000519358
-0.000504556
-0.00052339
-0.000517148
-0.000488198
-0.000439764
-0.00037349
-0.000291288
-0.000195699
-8.97578e-05
2.31132e-05
0.000139179
0.000254473
0.000364944
0.000466575
0.000555539
0.000628397
0.000682378
0.000715151
0.000723105
0.000703954
-0.000768669
-0.000794437
-0.00078503
-0.000743772
-0.000675138
-0.000581343
-0.000464943
-0.000329362
-0.00017872
-1.7716e-05
0.000148462
0.000314215
0.000473738
0.000621189
0.000750906
0.000857722
0.000937391
0.000986338
0.000999301
0.000973095
-0.0011475
-0.00118289
-0.00116907
-0.00111075
-0.00101413
-0.000882118
-0.00071806
-0.000526459
-0.000312808
-8.34612e-05
0.000154459
0.000393115
0.000624175
0.000839095
0.00102941
0.00118721
0.00130582
0.0013796
0.00140073
0.00136472
-0.00168843
-0.00173722
-0.00171752
-0.00163604
-0.00150133
-0.00131715
-0.00108769
-0.000818683
-0.000517237
-0.000191733
0.000148245
0.000491927
0.000827361
0.00114204
0.00142316
0.00165838
0.00183689
0.00194942
0.00198399
0.00193425
-0.00245751
-0.00252513
-0.00249801
-0.00238586
-0.00220049
-0.00194659
-0.00162911
-0.001255
-0.000833068
-0.000373945
0.000109897
0.000604218
0.00109198
0.00155489
0.00197353
0.0023282
0.00260083
0.00277536
0.00283263
0.00276334
-0.00354644
-0.00364087
-0.00360514
-0.00345361
-0.00320273
-0.00285811
-0.0024251
-0.00191151
-0.00132755
-0.00068599
-2.32294e-06
0.000706561
0.00141622
0.0021005
0.00272997
0.00327288
0.00369786
0.00397546
0.0040727
0.00397485
-0.00508244
-0.00521588
-0.00517146
-0.00497126
-0.00463866
-0.00418
-0.00360021
-0.00290702
-0.00211105
-0.00122668
-0.000272748
0.000738518
0.00176893
0.00278402
0.00374059
0.00458737
0.00526854
0.00572687
0.00589939
0.00575825
-0.00724399
-0.00743559
-0.00738399
-0.00712567
-0.00669525
-0.00609929
-0.00534065
-0.00442511
-0.00336136
-0.00216134
-0.000840501
0.000569988
0.00204904
0.00355171
0.00501755
0.00636592
0.00749712
0.00829538
0.00862579
0.00841935
-0.0102897
-0.010571
-0.0105134
-0.010184
-0.00963927
-0.00888465
-0.00791836
-0.00674285
-0.00536355
-0.00378771
-0.00202524
-9.22301e-05
0.00199547
0.00419763
0.0064494
0.0086436
0.0106137
0.0121177
0.0128289
0.0125414
-0.0146106
-0.0149829
-0.0149121
-0.0145052
-0.0138357
-0.0129022
-0.0116993
-0.0102304
-0.00850013
-0.00650991
-0.00425599
-0.00173177
0.00109482
0.00420062
0.00757069
0.0111244
0.0146408
0.0176462
0.0193607
0.0192271
-0.021741
-0.0219387
-0.0214242
-0.0206899
-0.0197804
-0.0185995
-0.0171021
-0.015289
-0.0131745
-0.0107656
-0.00804486
-0.00497256
-0.00151737
0.00233313
0.00677988
0.0119331
0.0177367
0.0236374
0.0282307
0.0301221
-0.0288113
-0.029474
-0.0298155
-0.0296887
-0.0288206
-0.0272101
-0.0250444
-0.0225155
-0.0197538
-0.0168272
-0.0137512
-0.0104813
-0.00688883
-0.00253759
0.00288069
0.0100332
0.0197324
0.0323945
0.0468315
0.0596996
-0.0831891
-0.0522342
-0.0400098
-0.0356292
-0.0328032
-0.0300512
-0.0272801
-0.0244996
-0.0216539
-0.0186755
-0.0154645
-0.0118307
-0.00738677
-0.00144551
0.00731596
0.020744
0.0410984
0.0702075
0.107322
0.153545
)
;

boundaryField
{
    movingWall
    {
        type            zeroGradient;
    }
    fixedWalls
    {
        type            zeroGradient;
    }
    frontAndBack
    {
        type            empty;
    }
}


// ************************************************************************* //
