/*--------------------------------*- C++ -*----------------------------------*\
  =========                 |
  \\      /  F ield         | OpenFOAM: The Open Source CFD Toolbox
   \\    /   O peration     | Website:  https://openfoam.org
    \\  /    A nd           | Version:  7
     \\/     M anipulation  |
\*---------------------------------------------------------------------------*/
FoamFile
{
    version     2.0;
    format      ascii;
    class       surfaceScalarField;
    location    "0.1";
    object      phi;
}
// * * * * * * * * * * * * * * * * * * * * * * * * * * * * * * * * * * * * * //

dimensions      [0 3 -1 0 0 0 0];

internalField   nonuniform List<scalar> 
760
(
-2.80611e-09
2.80609e-09
-8.67906e-09
5.87294e-09
-1.55249e-08
6.84583e-09
-2.22764e-08
6.75151e-09
-2.84518e-08
6.17543e-09
-3.37943e-08
5.34254e-09
-3.81299e-08
4.33567e-09
-4.13277e-08
3.19786e-09
-4.32924e-08
1.96482e-09
-4.3965e-08
6.72744e-10
-4.33242e-08
-6.40671e-10
-4.13871e-08
-1.93689e-09
-3.82093e-08
-3.17774e-09
-3.38832e-08
-4.32601e-09
-2.85386e-08
-5.34464e-09
-2.23498e-08
-6.18882e-09
-1.55763e-08
-6.77347e-09
-8.70543e-09
-6.87087e-09
-2.8124e-09
-5.893e-09
-2.81234e-09
-4.60401e-09
7.41008e-09
-1.32933e-08
1.45622e-08
-2.31632e-08
1.67157e-08
-3.2846e-08
1.64343e-08
-4.16992e-08
1.50286e-08
-4.93616e-08
1.30049e-08
-5.55823e-08
1.05564e-08
-6.01718e-08
7.78732e-09
-6.29922e-08
4.78524e-09
-6.39584e-08
1.63895e-09
-6.30396e-08
-1.55951e-09
-6.02605e-08
-4.71612e-09
-5.57007e-08
-7.73758e-09
-4.94942e-08
-1.05327e-08
-4.18286e-08
-1.30104e-08
-3.29556e-08
-1.5062e-08
-2.32401e-08
-1.6489e-08
-1.33327e-08
-1.67783e-08
-4.61292e-09
-1.46129e-08
-7.42525e-09
-5.60299e-09
1.30131e-08
-1.62521e-08
2.52113e-08
-2.83396e-08
2.88032e-08
-4.01783e-08
2.82731e-08
-5.09931e-08
2.58434e-08
-6.03509e-08
2.23628e-08
-6.79496e-08
1.81553e-08
-7.35596e-08
1.33974e-08
-7.70129e-08
8.23866e-09
-7.82049e-08
2.83105e-09
-7.70966e-08
-2.66774e-09
-7.37163e-08
-8.09634e-09
-6.81594e-08
-1.32945e-08
-6.05868e-08
-1.81052e-08
-5.1225e-08
-2.23722e-08
-4.03769e-08
-2.591e-08
-2.84819e-08
-2.8384e-08
-1.63279e-08
-2.89323e-08
-5.62184e-09
-2.53188e-08
-1.30471e-08
-7.13861e-09
2.01516e-08
-2.07156e-08
3.87883e-08
-3.61263e-08
4.42138e-08
-5.12183e-08
4.33651e-08
-6.50064e-08
3.96314e-08
-7.69417e-08
3.42981e-08
-8.66408e-08
2.78544e-08
-9.3811e-08
2.05676e-08
-9.82371e-08
1.26649e-08
-9.97837e-08
4.37756e-09
-9.83978e-08
-4.05373e-09
-9.41121e-08
-1.23821e-08
-8.70448e-08
-2.0362e-08
-7.73978e-08
-2.77524e-08
-6.54574e-08
-3.43127e-08
-5.16085e-08
-3.97589e-08
-3.64112e-08
-4.35814e-08
-2.08732e-08
-4.44705e-08
-7.18295e-09
-3.90089e-08
-2.02302e-08
-9.50409e-09
2.96558e-08
-2.75338e-08
5.6818e-08
-4.7982e-08
6.46621e-08
-6.80054e-08
6.33884e-08
-8.63048e-08
5.79308e-08
-1.02156e-07
5.01495e-08
-1.15052e-07
4.07504e-08
-1.24604e-07
3.01192e-08
-1.30523e-07
1.8584e-08
-1.32625e-07
6.47992e-09
-1.30835e-07
-5.84404e-09
-1.25189e-07
-1.80278e-08
-1.15839e-07
-2.97127e-08
-1.03046e-07
-4.05451e-08
-8.71879e-08
-5.01709e-08
-6.87741e-08
-5.81726e-08
-4.85492e-08
-6.38062e-08
-2.78544e-08
-6.51653e-08
-9.6015e-09
-5.72619e-08
-2.98316e-08
-1.29726e-08
4.26284e-08
-3.75004e-08
8.13458e-08
-6.52869e-08
9.24485e-08
-9.24912e-08
9.05927e-08
-1.17364e-07
8.28031e-08
-1.38928e-07
7.17141e-08
-1.56499e-07
5.83209e-08
-1.69545e-07
4.31657e-08
-1.77672e-07
2.67108e-08
-1.80621e-07
9.42878e-09
-1.78278e-07
-8.18669e-09
-1.70684e-07
-2.56227e-08
-1.58029e-07
-4.23673e-08
-1.40662e-07
-5.7912e-08
-1.19088e-07
-7.17451e-08
-9.39976e-08
-8.32631e-08
-6.64059e-08
-9.1398e-08
-3.81424e-08
-9.34286e-08
-1.31781e-08
-8.22263e-08
-4.30096e-08
-1.7935e-08
6.05633e-08
-5.1726e-08
1.15137e-07
-8.99593e-08
1.30682e-07
-1.27385e-07
1.28018e-07
-1.61621e-07
1.17039e-07
-1.91338e-07
1.01432e-07
-2.15599e-07
8.25812e-08
-2.33672e-07
6.12394e-08
-2.45008e-07
3.80463e-08
-2.49237e-07
1.36578e-08
-2.46184e-07
-1.12399e-08
-2.35881e-07
-3.59255e-08
-2.1857e-07
-5.96778e-08
-1.94709e-07
-8.17727e-08
-1.64979e-07
-1.01475e-07
-1.30327e-07
-1.17916e-07
-9.21542e-08
-1.2957e-07
-5.29988e-08
-1.32584e-07
-1.83573e-08
-1.16868e-07
-6.13669e-08
-2.49436e-08
8.55068e-08
-7.17758e-08
1.61969e-07
-1.24698e-07
1.83604e-07
-1.76495e-07
1.79815e-07
-2.23908e-07
1.64452e-07
-2.65123e-07
1.42647e-07
-2.98854e-07
1.16312e-07
-3.24092e-07
8.6478e-08
-3.40066e-07
5.40194e-08
-3.46242e-07
1.98339e-08
-3.42341e-07
-1.51403e-08
-3.28369e-07
-4.98976e-08
-3.04614e-07
-8.34331e-08
-2.71667e-07
-1.1472e-07
-2.30438e-07
-1.42703e-07
-1.82228e-07
-1.66126e-07
-1.28992e-07
-1.82806e-07
-7.4284e-08
-1.87292e-07
-2.57956e-08
-1.65356e-07
-8.71626e-08
-3.47699e-08
1.20277e-07
-9.9831e-08
2.2703e-07
-1.73256e-07
2.57029e-07
-2.45105e-07
2.51664e-07
-3.10922e-07
2.30269e-07
-3.68235e-07
1.9996e-07
-4.15288e-07
1.63365e-07
-4.50695e-07
1.21885e-07
-4.73373e-07
7.66969e-08
-4.82548e-07
2.90094e-08
-4.77769e-07
-1.99197e-08
-4.58962e-07
-6.87041e-08
-4.26436e-07
-1.15959e-07
-3.8092e-07
-1.60236e-07
-3.23608e-07
-2.00015e-07
-2.5627e-07
-2.33465e-07
-1.81643e-07
-2.57433e-07
-1.04755e-07
-2.6418e-07
-3.6464e-08
-2.33647e-07
-1.23627e-07
-4.84868e-08
1.68763e-07
-1.38915e-07
3.17458e-07
-2.40813e-07
3.58928e-07
-3.40484e-07
3.51335e-07
-4.31849e-07
3.21634e-07
-5.11565e-07
2.79676e-07
-5.77265e-07
2.29065e-07
-6.27064e-07
1.71683e-07
-6.59457e-07
1.0909e-07
-6.73325e-07
4.28772e-08
-6.67928e-07
-2.53169e-08
-6.43005e-07
-9.36271e-08
-5.988e-07
-1.60164e-07
-5.36129e-07
-2.22906e-07
-4.56484e-07
-2.7966e-07
-3.6223e-07
-3.2772e-07
-2.57198e-07
-3.62465e-07
-1.48565e-07
-3.72813e-07
-5.1823e-08
-3.30389e-07
-1.7545e-07
-6.75942e-08
2.36358e-07
-1.93231e-07
4.43095e-07
-3.34521e-07
5.00218e-07
-4.7259e-07
4.89404e-07
-5.9919e-07
4.48234e-07
-7.09868e-07
3.90354e-07
-8.015e-07
3.20697e-07
-8.71589e-07
2.41772e-07
-9.18095e-07
1.55597e-07
-9.39414e-07
6.41962e-08
-9.3435e-07
-3.0381e-08
-9.02213e-07
-1.25764e-07
-8.42984e-07
-2.19394e-07
-7.57366e-07
-3.08524e-07
-6.47035e-07
-3.89991e-07
-5.15009e-07
-4.59745e-07
-3.66607e-07
-5.10868e-07
-2.12181e-07
-5.27239e-07
-7.4152e-08
-4.68418e-07
-2.49602e-07
-9.42316e-08
3.30589e-07
-2.68713e-07
6.17576e-07
-4.64344e-07
6.95849e-07
-6.55104e-07
6.80164e-07
-8.29892e-07
6.23022e-07
-9.82921e-07
5.43383e-07
-1.11024e-06
4.48019e-07
-1.20871e-06
3.40243e-07
-1.2757e-06
2.2258e-07
-1.30897e-06
9.74736e-08
-1.30668e-06
-3.26753e-08
-1.2672e-06
-1.65249e-07
-1.1898e-06
-2.96786e-07
-1.07457e-06
-4.23758e-07
-9.22862e-07
-5.41696e-07
-7.38134e-07
-6.44474e-07
-5.27552e-07
-7.21449e-07
-3.06201e-07
-7.4859e-07
-1.07209e-07
-6.6741e-07
-3.5681e-07
-1.31588e-07
4.62177e-07
-3.74048e-07
8.60036e-07
-6.44524e-07
9.66325e-07
-9.07066e-07
9.42706e-07
-1.14693e-06
8.62883e-07
-1.35693e-06
7.53389e-07
-1.53249e-06
6.23576e-07
-1.67003e-06
4.77784e-07
-1.76647e-06
3.19016e-07
-1.81895e-06
1.49959e-07
-1.8249e-06
-2.67273e-08
-1.78065e-06
-2.09505e-07
-1.68401e-06
-3.93419e-07
-1.53318e-06
-5.74588e-07
-1.32781e-06
-7.47066e-07
-1.07062e-06
-9.01672e-07
-7.70456e-07
-1.02161e-06
-4.49335e-07
-1.06971e-06
-1.57674e-07
-9.59071e-07
-5.14485e-07
-1.8488e-07
6.47058e-07
-5.22913e-07
1.19807e-06
-8.96533e-07
1.33994e-06
-1.25585e-06
1.30202e-06
-1.58177e-06
1.18881e-06
-1.86624e-06
1.03786e-06
-2.10486e-06
8.62191e-07
-2.2945e-06
6.67428e-07
-2.43232e-06
4.56832e-07
-2.51511e-06
2.32757e-07
-2.54067e-06
-1.1701e-09
-2.50042e-06
-2.49751e-07
-2.3901e-06
-5.03739e-07
-2.20323e-06
-7.61465e-07
-1.9342e-06
-1.0161e-06
-1.58118e-06
-1.25469e-06
-1.15223e-06
-1.45056e-06
-6.78333e-07
-1.5436e-06
-2.39042e-07
-1.39836e-06
-7.53526e-07
-2.64028e-07
9.11085e-07
-7.39668e-07
1.67371e-06
-1.25595e-06
1.85623e-06
-1.74344e-06
1.78951e-06
-2.17902e-06
1.62439e-06
-2.55571e-06
1.41455e-06
-2.8717e-06
1.17818e-06
-3.12665e-06
9.22377e-07
-3.31999e-06
6.50176e-07
-3.44971e-06
3.62476e-07
-3.51283e-06
6.19462e-08
-3.49893e-06
-2.63649e-07
-3.39727e-06
-6.05402e-07
-3.19206e-06
-9.66669e-07
-2.8647e-06
-1.34345e-06
-2.39841e-06
-1.72098e-06
-1.7899e-06
-2.05907e-06
-1.07593e-06
-2.25757e-06
-3.84304e-07
-2.08999e-06
-1.13783e-06
-3.90968e-07
1.30205e-06
-1.07357e-06
2.35631e-06
-1.78817e-06
2.57083e-06
-2.43938e-06
2.44072e-06
-3.00454e-06
2.18955e-06
-3.48342e-06
1.89343e-06
-3.8821e-06
1.57686e-06
-4.20799e-06
1.24827e-06
-4.46731e-06
9.09487e-07
-4.66301e-06
5.58177e-07
-4.792e-06
1.90941e-07
-4.84858e-06
-2.07067e-07
-4.81152e-06
-6.42462e-07
-4.65044e-06
-1.12775e-06
-4.32011e-06
-1.67379e-06
-3.76402e-06
-2.27708e-06
-2.93338e-06
-2.88971e-06
-1.84229e-06
-3.34866e-06
-6.8432e-07
-3.24796e-06
-1.82215e-06
-6.3704e-07
1.93909e-06
-1.63771e-06
3.35698e-06
-2.61747e-06
3.55059e-06
-3.4595e-06
3.28276e-06
-4.1518e-06
2.88184e-06
-4.7119e-06
2.45353e-06
-5.16475e-06
2.02971e-06
-5.53535e-06
1.61887e-06
-5.84503e-06
1.21917e-06
-6.10893e-06
8.2208e-07
-6.3321e-06
4.14107e-07
-6.51573e-06
-2.34355e-08
-6.63478e-06
-5.23408e-07
-6.64615e-06
-1.11638e-06
-6.4627e-06
-1.85724e-06
-5.95025e-06
-2.78953e-06
-4.945e-06
-3.89496e-06
-3.34895e-06
-4.94471e-06
-1.37235e-06
-5.22456e-06
-3.1945e-06
-1.29142e-06
3.23052e-06
-2.88192e-06
4.94748e-06
-4.10608e-06
4.77474e-06
-5.00849e-06
4.18517e-06
-5.65976e-06
3.53311e-06
-6.12366e-06
2.91743e-06
-6.45821e-06
2.36426e-06
-6.71594e-06
1.87659e-06
-6.94051e-06
1.44374e-06
-7.16517e-06
1.04675e-06
-7.40864e-06
6.57575e-07
-7.65133e-06
2.19256e-07
-7.93394e-06
-2.40801e-07
-8.19756e-06
-8.52761e-07
-8.32141e-06
-1.73338e-06
-8.11298e-06
-2.99796e-06
-7.28806e-06
-4.71989e-06
-5.52181e-06
-6.71095e-06
-2.71832e-06
-8.02805e-06
-5.91282e-06
-3.15237e-06
6.38289e-06
-5.04071e-06
6.83581e-06
-5.62415e-06
5.35818e-06
-5.55148e-06
4.1125e-06
-5.17162e-06
3.15325e-06
-4.65866e-06
2.40448e-06
-4.1256e-06
1.83119e-06
-3.64447e-06
1.39546e-06
-3.25519e-06
1.05447e-06
-2.97904e-06
7.70593e-07
-2.83089e-06
5.0942e-07
-2.85283e-06
2.41201e-07
-3.00011e-06
-9.35227e-08
-3.26111e-06
-5.91756e-07
-3.64563e-06
-1.34887e-06
-4.11455e-06
-2.52904e-06
-4.54917e-06
-4.28526e-06
-4.56432e-06
-6.6958e-06
-3.16225e-06
-9.43012e-06
-9.07507e-06
6.38289e-06
1.32187e-05
1.85769e-05
2.26894e-05
2.58426e-05
2.82471e-05
3.00783e-05
3.14738e-05
3.25282e-05
3.32988e-05
3.38082e-05
3.40494e-05
3.39559e-05
3.33642e-05
3.20153e-05
2.94863e-05
2.5201e-05
1.85052e-05
9.07507e-06
)
;

boundaryField
{
    movingWall
    {
        type            calculated;
        value           uniform 0;
    }
    fixedWalls
    {
        type            calculated;
        value           uniform 0;
    }
    frontAndBack
    {
        type            empty;
        value           nonuniform 0();
    }
}


// ************************************************************************* //
