/*--------------------------------*- C++ -*----------------------------------*\
  =========                 |
  \\      /  F ield         | OpenFOAM: The Open Source CFD Toolbox
   \\    /   O peration     | Website:  https://openfoam.org
    \\  /    A nd           | Version:  7
     \\/     M anipulation  |
\*---------------------------------------------------------------------------*/
FoamFile
{
    version     2.0;
    format      ascii;
    class       volVectorField;
    location    "0.1";
    object      U;
}
// * * * * * * * * * * * * * * * * * * * * * * * * * * * * * * * * * * * * * //

dimensions      [0 1 -1 0 0 0 0];

internalField   nonuniform List<vector> 
400
(
(-1.1522e-05 2.51897e-05 0)
(-5.36433e-05 5.33688e-05 0)
(-0.000119772 6.24057e-05 0)
(-0.000189575 6.16047e-05 0)
(-0.00025493 5.63513e-05 0)
(-0.000312861 4.87489e-05 0)
(-0.000361501 3.95637e-05 0)
(-0.000399359 2.9187e-05 0)
(-0.000425302 1.79422e-05 0)
(-0.000438555 6.15854e-06 0)
(-0.000438716 -5.82031e-06 0)
(-0.000425763 -1.76431e-05 0)
(-0.000400062 -2.89613e-05 0)
(-0.000362353 -3.94367e-05 0)
(-0.000313751 -4.87333e-05 0)
(-0.00025574 -5.64436e-05 0)
(-0.000190203 -6.17808e-05 0)
(-0.000120159 -6.26164e-05 0)
(-5.37896e-05 -5.35402e-05 0)
(-1.1553e-05 -2.52442e-05 0)
(-1.96554e-05 9.77081e-05 0)
(-8.43289e-05 0.000195647 0)
(-0.000180611 0.000225619 0)
(-0.000281025 0.000222067 0)
(-0.000374752 0.000203101 0)
(-0.000457843 0.000175747 0)
(-0.000527646 0.000142655 0)
(-0.000581997 0.000105236 0)
(-0.00061925 6.46726e-05 0)
(-0.000638288 2.21621e-05 0)
(-0.000638529 -2.10506e-05 0)
(-0.000619941 -6.36964e-05 0)
(-0.000583047 -0.000104514 0)
(-0.000528919 -0.000142273 0)
(-0.000459172 -0.000175747 0)
(-0.000375962 -0.000203467 0)
(-0.000281964 -0.000222711 0)
(-0.00018119 -0.000226366 0)
(-8.45464e-05 -0.000196241 0)
(-1.96954e-05 -9.78733e-05 0)
(-2.38324e-05 0.000200314 0)
(-0.00010289 0.000389335 0)
(-0.00022092 0.000445212 0)
(-0.000343821 0.000437218 0)
(-0.000458363 0.000399716 0)
(-0.000559848 0.000345896 0)
(-0.000645104 0.000280803 0)
(-0.000711516 0.000207185 0)
(-0.000757084 0.000127366 0)
(-0.000780441 4.37046e-05 0)
(-0.000780866 -4.13526e-05 0)
(-0.000758305 -0.000125308 0)
(-0.000713377 -0.000205678 0)
(-0.000647368 -0.000280035 0)
(-0.000562224 -0.000345958 0)
(-0.000460546 -0.000400576 0)
(-0.000345542 -0.000438688 0)
(-0.000222009 -0.000446922 0)
(-0.000103323 -0.000390732 0)
(-2.39126e-05 -0.000200723 0)
(-3.03553e-05 0.000325696 0)
(-0.000131129 0.00062716 0)
(-0.000281615 0.000714881 0)
(-0.000438292 0.000701248 0)
(-0.000584311 0.000640897 0)
(-0.000713716 0.00055462 0)
(-0.00082249 0.000450355 0)
(-0.000907307 0.000332447 0)
(-0.000965612 0.000204587 0)
(-0.000995645 7.05315e-05 0)
(-0.000996462 -6.58112e-05 0)
(-0.000967959 -0.000200448 0)
(-0.000910891 -0.000329401 0)
(-0.000826862 -0.000448775 0)
(-0.000718327 -0.000554689 0)
(-0.000588583 -0.000642558 0)
(-0.00044171 -0.000704154 0)
(-0.000283832 -0.000718337 0)
(-0.00013207 -0.000630093 0)
(-3.05462e-05 -0.000326668 0)
(-4.04772e-05 0.000489208 0)
(-0.000174447 0.000937003 0)
(-0.000374156 0.0010661 0)
(-0.000582012 0.00104512 0)
(-0.000775758 0.0009551 0)
(-0.000947551 0.0008267 0)
(-0.00109208 0.000671587 0)
(-0.00120495 0.000496153 0)
(-0.00128273 0.000305844 0)
(-0.00132307 0.000106211 0)
(-0.00132466 -9.69545e-05 0)
(-0.0012873 -0.00029772 0)
(-0.00121192 -0.000490157 0)
(-0.00110061 -0.000668449 0)
(-0.000956567 -0.00082678 0)
(-0.000784152 -0.000958306 0)
(-0.00058878 -0.00105081 0)
(-0.000378611 -0.00107298 0)
(-0.000176417 -0.000943034 0)
(-4.09015e-05 -0.000491484 0)
(-5.53612e-05 0.000710107 0)
(-0.000237872 0.00135432 0)
(-0.00050932 0.00153867 0)
(-0.000791696 0.00150774 0)
(-0.00105495 0.00137797 0)
(-0.00128854 0.00119318 0)
(-0.00148529 0.000969971 0)
(-0.00163923 0.000717438 0)
(-0.00174569 0.000443334 0)
(-0.00180139 0.000155583 0)
(-0.00180448 -0.000137528 0)
(-0.00175456 -0.000427474 0)
(-0.0016528 -0.000705702 0)
(-0.00150189 -0.000963779 0)
(-0.00130613 -0.00119324 0)
(-0.00107138 -0.00138413 0)
(-0.000805005 -0.0015188 0)
(-0.000518158 -0.00155221 0)
(-0.000241896 -0.00136647 0)
(-5.62627e-05 -0.000715206 0)
(-7.67007e-05 0.00101393 0)
(-0.000328513 0.00192631 0)
(-0.000702125 0.00218563 0)
(-0.00109056 0.00214097 0)
(-0.00145278 0.00195708 0)
(-0.00177446 0.00169558 0)
(-0.00204582 0.00137973 0)
(-0.00225866 0.00102221 0)
(-0.00240653 0.000633839 0)
(-0.00248482 0.000225697 0)
(-0.0024908 -0.000190581 0)
(-0.00242374 -0.000602966 0)
(-0.002285 -0.000999313 0)
(-0.00207808 -0.00136756 0)
(-0.00180869 -0.00169554 0)
(-0.00148482 -0.00196889 0)
(-0.00111661 -0.00216239 0)
(-0.000719529 -0.00221206 0)
(-0.000336603 -0.00195041 0)
(-7.85586e-05 -0.00102491 0)
(-0.000106896 0.00143551 0)
(-0.000456401 0.00271724 0)
(-0.00097372 0.00307913 0)
(-0.00151125 0.0030154 0)
(-0.00201266 0.00275727 0)
(-0.0024584 0.00239072 0)
(-0.00283515 0.00194797 0)
(-0.00313161 0.00144649 0)
(-0.00333883 0.000901172 0)
(-0.00345026 0.000327281 0)
(-0.00346184 -0.000259084 0)
(-0.00337215 -0.000841155 0)
(-0.00318266 -0.00140186 0)
(-0.00289774 -0.00192407 0)
(-0.00252491 -0.00239031 0)
(-0.00207502 -0.00277988 0)
(-0.0015621 -0.00305676 0)
(-0.00100785 -0.00313048 0)
(-0.000472496 -0.00276458 0)
(-0.00011064 -0.00145845 0)
(-0.000149307 0.00202271 0)
(-0.000635534 0.00381517 0)
(-0.00135355 0.00431792 0)
(-0.00209912 0.00422761 0)
(-0.00279479 0.00386742 0)
(-0.00341398 0.00335672 0)
(-0.00393856 0.00273992 0)
(-0.00435307 0.00204083 0)
(-0.00464512 0.00127965 0)
(-0.0048054 0.000477125 0)
(-0.00482775 -0.000344804 0)
(-0.00470951 -0.00116306 0)
(-0.00445181 -0.00195385 0)
(-0.00405978 -0.00269292 0)
(-0.00354304 -0.00335516 0)
(-0.00291607 -0.00391055 0)
(-0.00219829 -0.00430734 0)
(-0.00142034 -0.00441745 0)
(-0.000667304 -0.0039077 0)
(-0.000156723 -0.00206952 0)
(-0.000208623 0.00284155 0)
(-0.000885346 0.00534122 0)
(-0.00188234 0.00603747 0)
(-0.00291667 0.00590992 0)
(-0.00388187 0.00540934 0)
(-0.00474204 0.00470109 0)
(-0.00547282 0.00384605 0)
(-0.00605331 0.00287643 0)
(-0.00646653 0.00181922 0)
(-0.00669933 0.00070202 0)
(-0.00674239 -0.000445803 0)
(-0.00659061 -0.00159309 0)
(-0.00624383 -0.00270702 0)
(-0.00570723 -0.0037535 0)
(-0.00499228 -0.00469626 0)
(-0.00411772 -0.00549132 0)
(-0.00311011 -0.00606347 0)
(-0.00201298 -0.00623034 0)
(-0.000947768 -0.00552175 0)
(-0.000223154 -0.00293544 0)
(-0.000291421 0.0039833 0)
(-0.00123295 0.00746223 0)
(-0.00261655 0.00842354 0)
(-0.00404988 0.00824312 0)
(-0.00538685 0.00754923 0)
(-0.00657955 0.00657079 0)
(-0.00759592 0.00539112 0)
(-0.00840846 0.00405332 0)
(-0.00899449 0.00259277 0)
(-0.0093358 0.00104525 0)
(-0.00941838 -0.000551214 0)
(-0.00923265 -0.0021558 0)
(-0.00877488 -0.00372415 0)
(-0.00804825 -0.00520882 0)
(-0.00706441 -0.00655742 0)
(-0.0058459 -0.00770454 0)
(-0.004428 -0.00853898 0)
(-0.00287275 -0.00879805 0)
(-0.00135567 -0.00781493 0)
(-0.000319876 -0.00416966 0)
(-0.000407135 0.00557478 0)
(-0.00171688 0.0104087 0)
(-0.00363544 0.0117308 0)
(-0.00561787 0.011473 0)
(-0.00746393 0.0105118 0)
(-0.00911105 0.00916449 0)
(-0.0105188 0.00754513 0)
(-0.0116526 0.00571092 0)
(-0.0124838 0.00370695 0)
(-0.0129882 0.00157768 0)
(-0.0131455 -0.000630074 0)
(-0.0129379 -0.00286606 0)
(-0.0123536 -0.00507239 0)
(-0.0113886 -0.00718469 0)
(-0.0100497 -0.00912786 0)
(-0.00835915 -0.0108034 0)
(-0.00636046 -0.0120427 0)
(-0.00414143 -0.0124601 0)
(-0.00195993 -0.0111004 0)
(-0.000463382 -0.00594339 0)
(-0.000570046 0.00779435 0)
(-0.0023942 0.0145016 0)
(-0.00505387 0.0163082 0)
(-0.00778881 0.0159308 0)
(-0.0103251 0.0145955 0)
(-0.0125839 0.0127442 0)
(-0.0145183 0.0105336 0)
(-0.0160891 0.00803917 0)
(-0.0172634 0.00531599 0)
(-0.0180121 0.00241569 0)
(-0.0183083 -0.000609187 0)
(-0.0181205 -0.00370472 0)
(-0.0174188 -0.00679993 0)
(-0.0161824 -0.00981297 0)
(-0.0143992 -0.0126393 0)
(-0.0120776 -0.0151296 0)
(-0.00926036 -0.0170216 0)
(-0.00606686 -0.0177319 0)
(-0.00288339 -0.0158657 0)
(-0.000683124 -0.00852467 0)
(-0.000804363 0.0109001 0)
(-0.00335701 0.0201964 0)
(-0.00704933 0.0226363 0)
(-0.010811 0.0220561 0)
(-0.0142681 0.020183 0)
(-0.0173294 0.0176377 0)
(-0.0199501 0.0146377 0)
(-0.0220954 0.0112811 0)
(-0.0237362 0.00763161 0)
(-0.024844 0.0037409 0)
(-0.0253922 -0.000343739 0)
(-0.0253267 -0.00457238 0)
(-0.0245829 -0.00888009 0)
(-0.0231053 -0.0131772 0)
(-0.0208316 -0.0173297 0)
(-0.0177178 -0.0211171 0)
(-0.0137696 -0.0241217 0)
(-0.00912581 -0.0254243 0)
(-0.00437284 -0.0229168 0)
(-0.00103948 -0.0123634 0)
(-0.00115886 0.0152882 0)
(-0.00477602 0.028165 0)
(-0.0099278 0.0313846 0)
(-0.0150817 0.0304204 0)
(-0.0197331 0.0277376 0)
(-0.0237986 0.0242192 0)
(-0.0272609 0.0201697 0)
(-0.0301137 0.0157157 0)
(-0.032354 0.0109232 0)
(-0.0339732 0.0058282 0)
(-0.0349453 0.000450197 0)
(-0.0352061 -0.0051905 0)
(-0.0346492 -0.0110806 0)
(-0.0331406 -0.0171643 0)
(-0.0305065 -0.0233115 0)
(-0.0265581 -0.0292306 0)
(-0.0211497 -0.0342644 0)
(-0.0143474 -0.0368944 0)
(-0.00701325 -0.0337372 0)
(-0.00168691 -0.0183303 0)
(-0.00175108 0.0216441 0)
(-0.00701574 0.0394342 0)
(-0.0142807 0.0434627 0)
(-0.0212965 0.0417072 0)
(-0.0274111 0.0377372 0)
(-0.0326171 0.0328171 0)
(-0.0369857 0.0273748 0)
(-0.0405913 0.0215721 0)
(-0.0435051 0.0154654 0)
(-0.045776 0.00904806 0)
(-0.0474055 0.00226988 0)
(-0.0483554 -0.0049458 0)
(-0.0484912 -0.0127064 0)
(-0.0475602 -0.0210966 0)
(-0.0451848 -0.030121 0)
(-0.0408422 -0.0395251 0)
(-0.0339244 -0.0483811 0)
(-0.0240673 -0.0541519 0)
(-0.0123382 -0.0510098 0)
(-0.00308327 -0.0282125 0)
(-0.00300753 0.0319376 0)
(-0.0110662 0.056531 0)
(-0.0213512 0.0605897 0)
(-0.0307025 0.0568119 0)
(-0.0383737 0.0505391 0)
(-0.0445731 0.0434848 0)
(-0.0495776 0.036175 0)
(-0.0536448 0.0287807 0)
(-0.0570097 0.0213196 0)
(-0.0598559 0.0137025 0)
(-0.0622881 0.00574963 0)
(-0.0643429 -0.00278665 0)
(-0.0659134 -0.0121894 0)
(-0.0666795 -0.0229338 0)
(-0.0659982 -0.0355035 0)
(-0.0627434 -0.0501077 0)
(-0.0552876 -0.065936 0)
(-0.0420614 -0.0792193 0)
(-0.0237414 -0.0795755 0)
(-0.0065303 -0.0462614 0)
(-0.00663251 0.0438619 0)
(-0.0208817 0.0763858 0)
(-0.0355009 0.0815647 0)
(-0.0462989 0.075553 0)
(-0.0538699 0.0659697 0)
(-0.0592567 0.0556671 0)
(-0.0631093 0.0456893 0)
(-0.0659679 0.0363707 0)
(-0.0683124 0.0276914 0)
(-0.0705246 0.0194273 0)
(-0.0728351 0.0111983 0)
(-0.0752708 0.0024294 0)
(-0.0780001 -0.00775629 0)
(-0.080896 -0.0205002 0)
(-0.0831165 -0.0373244 0)
(-0.0830241 -0.059986 0)
(-0.0779992 -0.0890906 0)
(-0.0649558 -0.120273 0)
(-0.0426886 -0.135963 0)
(-0.0133716 -0.0914024 0)
(-0.0195016 0.111989 0)
(-0.0448694 0.135923 0)
(-0.055782 0.110182 0)
(-0.0568321 0.0862914 0)
(-0.0537985 0.0679869 0)
(-0.0490279 0.0535709 0)
(-0.0436841 0.0421001 0)
(-0.0385814 0.0328364 0)
(-0.0342314 0.0250755 0)
(-0.0309156 0.0181661 0)
(-0.0288312 0.0114202 0)
(-0.0282909 0.00393301 0)
(-0.0292398 -0.00566439 0)
(-0.0314542 -0.0193348 0)
(-0.034911 -0.040004 0)
(-0.0393442 -0.0712458 0)
(-0.0435526 -0.115549 0)
(-0.0451352 -0.169465 0)
(-0.0405908 -0.212282 0)
(-0.00988664 -0.174864 0)
(0.0797084 0.0880448 0)
(0.0917986 0.105008 0)
(0.152476 0.0901186 0)
(0.206204 0.0722965 0)
(0.244557 0.0564244 0)
(0.272044 0.0432242 0)
(0.292709 0.0327411 0)
(0.308565 0.0247088 0)
(0.32064 0.0186549 0)
(0.329603 0.0140533 0)
(0.335882 0.0104049 0)
(0.339461 0.00719211 0)
(0.340085 0.00397567 0)
(0.336641 0.000148432 0)
(0.327182 -0.00539581 0)
(0.308675 -0.0142582 0)
(0.276946 -0.0287455 0)
(0.226003 -0.0542745 0)
(0.137037 -0.0984381 0)
(0.0966846 -0.107184 0)
)
;

boundaryField
{
    movingWall
    {
        type            fixedValue;
        value           uniform (1 0 0);
    }
    fixedWalls
    {
        type            noSlip;
    }
    frontAndBack
    {
        type            empty;
    }
}


// ************************************************************************* //
