/*--------------------------------*- C++ -*----------------------------------*\
  =========                 |
  \\      /  F ield         | OpenFOAM: The Open Source CFD Toolbox
   \\    /   O peration     | Website:  https://openfoam.org
    \\  /    A nd           | Version:  9
     \\/     M anipulation  |
\*---------------------------------------------------------------------------*/
FoamFile
{
    format      ascii;
    class       volScalarField;
    location    "0.5";
    object      p;
}
// * * * * * * * * * * * * * * * * * * * * * * * * * * * * * * * * * * * * * //

dimensions      [ 0 2 -2 0 0 0 0 ];

internalField   nonuniform List<scalar> 
400
(
6.48637e-09
-2.71436e-06
-4.85611e-06
-5.86824e-06
-5.33318e-06
-3.07341e-06
8.38767e-07
6.14716e-06
1.24787e-05
1.93919e-05
2.64126e-05
3.30647e-05
3.88987e-05
4.35222e-05
4.66354e-05
4.80766e-05
4.78822e-05
4.63429e-05
4.39745e-05
4.13497e-05
8.56608e-06
4.00457e-06
1.32366e-06
3.11523e-07
7.31678e-07
2.55209e-06
5.6658e-06
9.84799e-06
1.4795e-05
2.01553e-05
2.55536e-05
3.06159e-05
3.49945e-05
3.83935e-05
4.05912e-05
4.14674e-05
4.10337e-05
3.93836e-05
3.64222e-05
3.20154e-05
9.71917e-06
2.76775e-06
-1.22867e-06
-2.76813e-06
-2.41677e-06
-3.32449e-07
3.2945e-06
8.15438e-06
1.3863e-05
1.9995e-05
2.61073e-05
3.17636e-05
3.65632e-05
4.01658e-05
4.2315e-05
4.28667e-05
4.18214e-05
3.92293e-05
3.47748e-05
2.81233e-05
3.9303e-06
-5.8429e-06
-1.13132e-05
-1.32234e-05
-1.24391e-05
-9.24785e-06
-3.96718e-06
2.93783e-06
1.09163e-05
1.93747e-05
2.77047e-05
3.5316e-05
4.1672e-05
4.63248e-05
4.8946e-05
4.93641e-05
4.76065e-05
4.37682e-05
3.74412e-05
2.81842e-05
-1.17636e-05
-2.55459e-05
-3.28724e-05
-3.48342e-05
-3.27388e-05
-2.7076e-05
-1.83717e-05
-7.35195e-06
5.14415e-06
1.82234e-05
3.09773e-05
4.25281e-05
5.20852e-05
5.90016e-05
6.28241e-05
6.33521e-05
6.06957e-05
5.5087e-05
4.60766e-05
3.31432e-05
-4.24638e-05
-6.21978e-05
-7.19529e-05
-7.34042e-05
-6.85883e-05
-5.83345e-05
-4.35073e-05
-2.52488e-05
-4.85973e-06
1.62791e-05
3.67614e-05
5.5215e-05
7.04074e-05
8.134e-05
8.73447e-05
8.81885e-05
8.41617e-05
7.57968e-05
6.26855e-05
4.42483e-05
-9.73285e-05
-0.000125786
-0.000138658
-0.00013859
-0.000128805
-0.000110686
-8.5618e-05
-5.53674e-05
-2.19325e-05
1.25506e-05
4.58829e-05
7.58612e-05
0.000100478
0.000118103
0.000127673
0.000128905
0.000122454
0.000109489
8.9897e-05
6.31712e-05
-0.00019202
-0.000232963
-0.000249672
-0.000246373
-0.000228162
-0.000197269
-0.000155817
-0.000106438
-5.21162e-05
3.89607e-06
5.81779e-05
0.00010714
0.000147372
0.000176043
0.000191292
0.000192687
0.000181572
0.000160459
0.000130252
9.0973e-05
-0.000352389
-0.000410712
-0.000431931
-0.000422789
-0.00039123
-0.000340677
-0.000274172
-0.000195392
-0.00010857
-1.8493e-05
6.96087e-05
0.000149898
0.00021634
0.000263706
0.000288348
0.000289254
0.00026893
0.000232683
0.000184251
0.000125512
-0.000619918
-0.000701628
-0.000728
-0.000709663
-0.000658679
-0.000579959
-0.000477412
-0.000355636
-0.000220083
-7.74356e-05
6.44568e-05
0.00019678
0.000308351
0.000389053
0.000430998
0.000430996
0.000392996
0.000327807
0.000246276
0.000155602
-0.00105873
-0.00117061
-0.00120319
-0.00117283
-0.0010972
-0.00098272
-0.000833578
-0.00065441
-0.000451051
-0.000231922
-8.07624e-06
0.000211362
0.000403321
0.000547716
0.000626668
0.000629792
0.000560962
0.000440534
0.000295417
0.000146713
-0.00176228
-0.00191101
-0.00195251
-0.00191126
-0.00181199
-0.00166222
-0.00146498
-0.00122285
-0.000939035
-0.000619893
-0.000277547
7.43753e-05
0.000406911
0.000678053
0.000845405
0.000876322
0.000765692
0.000546069
0.000275168
7.49944e-06
-0.00285558
-0.00304669
-0.00310489
-0.00306543
-0.00296153
-0.00280144
-0.00258552
-0.00231149
-0.00197506
-0.00157247
-0.001109
-0.000604897
-4.36774e-05
0.000480132
0.00087436
0.00104416
0.000936308
0.000578728
6.94073e-05
-0.000470462
-0.00447702
-0.00471141
-0.00480021
-0.00479293
-0.00473427
-0.00463625
-0.00449954
-0.00431987
-0.0040865
-0.00377661
-0.00335105
-0.00277375
-0.00204798
-0.00115954
-0.000247653
0.0004505
0.000688717
0.000353075
-0.000499879
-0.00168979
-0.00675558
-0.00703183
-0.00717787
-0.00726324
-0.00735071
-0.00746607
-0.00762622
-0.00784861
-0.0081475
-0.00851312
-0.00886353
-0.00899497
-0.00863708
-0.0076497
-0.00594193
-0.00385816
-0.00205219
-0.00125984
-0.002012
-0.00434513
-0.00968617
-0.00999421
-0.0101879
-0.0103729
-0.0106629
-0.0111313
-0.0118511
-0.0129175
-0.0144431
-0.0165044
-0.0190115
-0.0215385
-0.0233082
-0.0235418
-0.0218202
-0.0179434
-0.012633
-0.00780115
-0.00605143
-0.00854746
-0.01319
-0.0134334
-0.013617
-0.0138899
-0.0144073
-0.0152962
-0.0167034
-0.0188267
-0.0219021
-0.026121
-0.0314504
-0.0374325
-0.043005
-0.0464441
-0.0462055
-0.0412505
-0.0317344
-0.0202298
-0.012072
-0.01069
-0.0182431
-0.0180436
-0.0173385
-0.0168323
-0.0168244
-0.0174668
-0.0189132
-0.021373
-0.0250942
-0.0302974
-0.0369164
-0.0444288
-0.051665
-0.0568344
-0.0577417
-0.0527714
-0.041044
-0.023901
-0.00727896
0.00240778
-0.0177546
-0.0184136
-0.018497
-0.0181756
-0.0178675
-0.0179674
-0.0188138
-0.0207375
-0.0240255
-0.0288145
-0.0349434
-0.0417569
-0.047948
-0.0515661
-0.0498893
-0.0400139
-0.020154
0.00923739
0.042533
0.0745752
-0.0681694
-0.035757
-0.0220497
-0.016558
-0.0136183
-0.0121381
-0.0121452
-0.0137102
-0.0167968
-0.0212066
-0.0264201
-0.0313589
-0.0342483
-0.0325487
-0.0231115
-0.00150247
0.0363428
0.0919761
0.160143
0.231329
)
;

boundaryField
{
    movingWall
    {
        type            zeroGradient;
    }
    fixedWalls
    {
        type            zeroGradient;
    }
    frontAndBack
    {
        type            empty;
    }
}


// ************************************************************************* //
