/*--------------------------------*- C++ -*----------------------------------*\
  =========                 |
  \\      /  F ield         | OpenFOAM: The Open Source CFD Toolbox
   \\    /   O peration     | Website:  https://openfoam.org
    \\  /    A nd           | Version:  9
     \\/     M anipulation  |
\*---------------------------------------------------------------------------*/
FoamFile
{
    format      ascii;
    class       surfaceScalarField;
    location    "0.5";
    object      phi;
}
// * * * * * * * * * * * * * * * * * * * * * * * * * * * * * * * * * * * * * //

dimensions      [ 0 3 -1 0 0 0 0 ];

internalField   nonuniform List<scalar> 
760
(
-6.71889e-10
6.71222e-10
-3.88255e-09
3.21067e-09
-9.37678e-09
5.49425e-09
-1.63002e-08
6.92344e-09
-2.37178e-08
7.41765e-09
-3.07969e-08
7.07926e-09
-3.68737e-08
6.0769e-09
-4.14641e-08
4.59047e-09
-4.42492e-08
2.78518e-09
-4.50549e-08
8.05727e-10
-4.38368e-08
-1.21815e-09
-4.06756e-08
-3.16127e-09
-3.57824e-08
-4.89315e-09
-2.95132e-08
-6.26923e-09
-2.23845e-08
-7.1286e-09
-1.50804e-08
-7.30402e-09
-8.42756e-09
-6.65277e-09
-3.3115e-09
-5.11595e-09
-4.75103e-10
-2.83632e-09
-4.75041e-10
-3.50922e-09
4.18043e-09
-1.24982e-08
1.21997e-08
-2.52964e-08
1.82926e-08
-4.01899e-08
2.1817e-08
-5.5537e-08
2.27649e-08
-6.99018e-08
2.14442e-08
-8.21214e-08
1.82966e-08
-9.13229e-08
1.37919e-08
-9.6912e-08
8.37428e-09
-9.85549e-08
2.4484e-09
-9.6163e-08
-3.61021e-09
-8.9889e-08
-9.43535e-09
-8.01331e-08
-1.46491e-08
-6.75555e-08
-1.88469e-08
-5.30883e-08
-2.15957e-08
-3.79317e-08
-2.24605e-08
-2.35141e-08
-2.10702e-08
-1.13951e-08
-1.7235e-08
-3.10168e-09
-1.11298e-08
-3.57661e-09
-5.46827e-09
9.64873e-09
-1.91261e-08
2.58577e-08
-3.81675e-08
3.73343e-08
-5.99306e-08
4.35803e-08
-8.20566e-08
4.48911e-08
-1.02568e-07
4.19562e-08
-1.199e-07
3.56279e-08
-1.32885e-07
2.67771e-08
-1.40732e-07
1.62212e-08
-1.42994e-07
4.71056e-09
-1.39554e-07
-7.05062e-09
-1.30619e-07
-1.83702e-08
-1.16734e-07
-2.85344e-08
-9.87962e-08
-3.67843e-08
-7.80762e-08
-4.23156e-08
-5.62174e-08
-4.43192e-08
-3.52047e-08
-4.20829e-08
-1.72783e-08
-3.51613e-08
-4.79086e-09
-2.36171e-08
-8.36743e-09
-7.67201e-09
1.73208e-08
-2.6807e-08
4.49928e-08
-5.33386e-08
6.3866e-08
-8.34725e-08
7.37143e-08
-1.13933e-07
7.53515e-08
-1.42037e-07
7.00607e-08
-1.65694e-07
5.92849e-08
-1.8336e-07
4.44427e-08
-1.93985e-07
2.68462e-08
-1.96973e-07
7.69836e-09
-1.9216e-07
-1.18635e-08
-1.7982e-07
-3.07106e-08
-1.60684e-07
-4.76709e-08
-1.35971e-07
-6.14969e-08
-1.0742e-07
-7.08669e-08
-7.729e-08
-7.44488e-08
-4.83249e-08
-7.10478e-08
-2.36369e-08
-5.98491e-08
-6.49975e-09
-4.07541e-08
-1.48673e-08
-1.0994e-08
2.8315e-08
-3.82038e-08
7.22028e-08
-7.56973e-08
1.0136e-07
-1.18057e-07
1.16074e-07
-1.60701e-07
1.17995e-07
-1.99936e-07
1.09296e-07
-2.32907e-07
9.22558e-08
-2.57505e-07
6.9041e-08
-2.72282e-07
4.16225e-08
-2.76389e-07
1.18053e-08
-2.69565e-07
-1.86872e-08
-2.5216e-07
-4.81152e-08
-2.25181e-07
-7.465e-08
-1.90347e-07
-9.63302e-08
-1.50135e-07
-1.11079e-07
-1.07774e-07
-1.1681e-07
-6.71665e-08
-1.11655e-07
-3.27027e-08
-9.43128e-08
-8.92738e-09
-6.45293e-08
-2.37947e-08
-1.62071e-08
4.45222e-08
-5.57882e-08
1.11784e-07
-1.09871e-07
1.55442e-07
-1.70612e-07
1.76815e-07
-2.31538e-07
1.78921e-07
-2.87506e-07
1.65264e-07
-3.34558e-07
1.39308e-07
-3.69745e-07
1.04228e-07
-3.90987e-07
6.28645e-08
-3.97003e-07
1.7822e-08
-3.87312e-07
-2.83778e-08
-3.62318e-07
-7.31093e-08
-3.23409e-07
-1.13559e-07
-2.73072e-07
-1.46667e-07
-2.14959e-07
-1.69192e-07
-1.53856e-07
-1.77913e-07
-9.55092e-08
-1.70002e-07
-4.62681e-08
-1.43554e-07
-1.25428e-08
-9.82548e-08
-3.63373e-08
-2.42313e-08
6.87535e-08
-8.24678e-08
1.7002e-07
-1.61284e-07
2.34258e-07
-2.49275e-07
2.64806e-07
-3.37283e-07
2.66928e-07
-4.18151e-07
2.46131e-07
-4.86372e-07
2.07529e-07
-5.37766e-07
1.55622e-07
-5.69255e-07
9.43545e-08
-5.78792e-07
2.73583e-08
-5.65388e-07
-4.17809e-08
-5.2936e-07
-1.09137e-07
-4.72555e-07
-1.70364e-07
-3.98597e-07
-2.20625e-07
-3.13013e-07
-2.54776e-07
-2.23141e-07
-2.67784e-07
-1.3773e-07
-2.55413e-07
-6.62185e-08
-2.15066e-07
-1.77559e-08
-1.46718e-07
-5.40933e-08
-3.62976e-08
1.05051e-07
-1.22035e-07
2.55757e-07
-2.36938e-07
3.49162e-07
-3.64532e-07
3.92399e-07
-4.92002e-07
3.94399e-07
-6.09507e-07
3.63635e-07
-7.0944e-07
3.07462e-07
-7.85845e-07
2.32027e-07
-8.34056e-07
1.42565e-07
-8.50621e-07
4.39231e-08
-8.33408e-07
-5.89932e-08
-7.82155e-07
-1.60391e-07
-6.99065e-07
-2.53454e-07
-5.8933e-07
-3.30361e-07
-4.6146e-07
-3.82646e-07
-3.27098e-07
-4.02146e-07
-2.00113e-07
-3.82398e-07
-9.50113e-08
-3.20168e-07
-2.49884e-08
-2.1674e-07
-7.9082e-08
-5.39976e-08
1.59048e-07
-1.79264e-07
3.81023e-07
-3.45561e-07
5.15459e-07
-5.29494e-07
5.76333e-07
-7.13536e-07
5.7844e-07
-8.84474e-07
5.34574e-07
-1.03201e-06
4.54997e-07
-1.14769e-06
3.47708e-07
-1.22431e-06
2.19185e-07
-1.25585e-06
7.54667e-08
-1.23768e-06
-7.7166e-08
-1.16755e-06
-2.30525e-07
-1.04726e-06
-3.73746e-07
-8.83761e-07
-4.93855e-07
-6.90172e-07
-5.76235e-07
-4.85583e-07
-6.06736e-07
-2.93144e-07
-5.74838e-07
-1.36354e-07
-4.76958e-07
-3.46653e-08
-3.18429e-07
-1.13747e-07
-7.91295e-08
2.38178e-07
-2.59404e-07
5.61298e-07
-4.96708e-07
7.52763e-07
-7.5874e-07
8.38364e-07
-1.02235e-06
8.42053e-07
-1.27053e-06
7.82753e-07
-1.48984e-06
6.74303e-07
-1.66853e-06
5.26398e-07
-1.79548e-06
3.46136e-07
-1.86008e-06
1.4007e-07
-1.85282e-06
-8.4429e-08
-1.76554e-06
-3.17809e-07
-1.59703e-06
-5.42251e-07
-1.35474e-06
-7.36149e-07
-1.05797e-06
-8.73e-07
-7.38735e-07
-9.25972e-07
-4.38092e-07
-8.7548e-07
-1.97418e-07
-7.17632e-07
-4.73243e-08
-4.68523e-07
-1.61071e-07
-1.1314e-07
3.51318e-07
-3.6654e-07
8.14698e-07
-6.97919e-07
1.08414e-06
-1.06441e-06
1.20485e-06
-1.437e-06
1.21465e-06
-1.79523e-06
1.14098e-06
-2.12277e-06
1.00185e-06
-2.40426e-06
8.07886e-07
-2.62317e-06
5.65043e-07
-2.7611e-06
2.78006e-07
-2.80136e-06
-4.41728e-08
-2.71814e-06
-4.01029e-07
-2.50113e-06
-7.59265e-07
-2.15158e-06
-1.08569e-06
-1.69372e-06
-1.33086e-06
-1.18021e-06
-1.43948e-06
-6.87685e-07
-1.368e-06
-2.97257e-07
-1.10806e-06
-6.48695e-08
-7.0091e-07
-2.25941e-07
-1.55971e-07
5.07289e-07
-5.00324e-07
1.15905e-06
-9.49059e-07
1.53288e-06
-1.44825e-06
1.70404e-06
-1.96428e-06
1.73069e-06
-2.47534e-06
1.65204e-06
-2.96447e-06
1.49098e-06
-3.41417e-06
1.25759e-06
-3.80229e-06
9.53167e-07
-4.09941e-06
5.75119e-07
-4.26994e-06
1.26363e-07
-4.26785e-06
-4.03117e-07
-4.04488e-06
-9.82237e-07
-3.57697e-06
-1.55361e-06
-2.88073e-06
-2.0271e-06
-2.03479e-06
-2.28542e-06
-1.18181e-06
-2.22098e-06
-4.93623e-07
-1.79625e-06
-9.63908e-08
-1.09814e-06
-3.22332e-07
-2.0386e-07
7.11149e-07
-6.50113e-07
1.6053e-06
-1.23206e-06
2.11483e-06
-1.88624e-06
2.35822e-06
-2.57796e-06
2.42241e-06
-3.28911e-06
2.36319e-06
-4.00811e-06
2.20997e-06
-4.72136e-06
1.97084e-06
-5.40536e-06
1.63717e-06
-6.01842e-06
1.18818e-06
-6.49193e-06
5.99877e-07
-6.76048e-06
-1.34568e-07
-6.66931e-06
-1.0734e-06
-6.13917e-06
-2.08375e-06
-5.1424e-06
-3.02387e-06
-3.76806e-06
-3.65976e-06
-2.25218e-06
-3.73687e-06
-9.46279e-07
-3.10215e-06
-1.73477e-07
-1.87095e-06
-4.95809e-07
-2.48843e-07
9.59992e-07
-7.92164e-07
2.14862e-06
-1.5036e-06
2.82626e-06
-2.31376e-06
3.16838e-06
-3.19269e-06
3.30134e-06
-4.13484e-06
3.30534e-06
-5.14548e-06
3.22061e-06
-6.2276e-06
3.05295e-06
-7.36703e-06
2.77659e-06
-8.51337e-06
2.33452e-06
-9.55787e-06
1.64438e-06
-1.03226e-05
6.30168e-07
-1.06322e-05
-7.63769e-07
-1.02389e-05
-2.47714e-06
-9.0205e-06
-4.24222e-06
-7.00924e-06
-5.67102e-06
-4.48249e-06
-6.26362e-06
-2.02081e-06
-5.56382e-06
-3.89387e-07
-3.50237e-06
-8.85197e-07
-2.74116e-07
1.23411e-06
-8.79454e-07
2.75396e-06
-1.67621e-06
3.62302e-06
-2.59423e-06
4.08639e-06
-3.61428e-06
4.3214e-06
-4.75055e-06
4.44161e-06
-6.03406e-06
4.50413e-06
-7.4936e-06
4.51249e-06
-9.13007e-06
4.41306e-06
-1.08856e-05
4.09005e-06
-1.26165e-05
3.37532e-06
-1.40787e-05
2.09235e-06
-1.49681e-05
1.2557e-07
-1.50437e-05
-2.40149e-06
-1.40332e-05
-5.25272e-06
-1.17793e-05
-7.92494e-06
-8.35761e-06
-9.68531e-06
-4.34287e-06
-9.57856e-06
-1.05147e-06
-6.79377e-06
-1.93667e-06
-2.89828e-07
1.52394e-06
-9.28421e-07
3.39255e-06
-1.74599e-06
4.44059e-06
-2.65305e-06
4.99346e-06
-3.63879e-06
5.30713e-06
-4.73901e-06
5.54182e-06
-6.00558e-06
5.7707e-06
-7.48117e-06
5.98808e-06
-9.17421e-06
6.10611e-06
-1.10374e-05
5.95327e-06
-1.29599e-05
5.29776e-06
-1.47745e-05
3.90702e-06
-1.62352e-05
1.5862e-06
-1.70858e-05
-1.55082e-06
-1.7133e-05
-5.20556e-06
-1.58625e-05
-9.1954e-06
-1.28335e-05
-1.27144e-05
-8.04224e-06
-1.43698e-05
-2.71712e-06
-1.21189e-05
-4.65379e-06
-3.0214e-07
1.82608e-06
-8.53084e-07
3.9435e-06
-1.50299e-06
5.09049e-06
-2.16518e-06
5.65565e-06
-2.79789e-06
5.93984e-06
-3.4031e-06
6.14703e-06
-4.00668e-06
6.37428e-06
-4.64398e-06
6.62538e-06
-5.35394e-06
6.81607e-06
-6.18419e-06
6.78352e-06
-7.19745e-06
6.31102e-06
-8.46345e-06
5.17302e-06
-1.0066e-05
3.18878e-06
-1.18105e-05
1.93667e-07
-1.33848e-05
-3.63123e-06
-1.42514e-05
-8.32888e-06
-1.35945e-05
-1.33712e-05
-1.0504e-05
-1.74603e-05
-4.88933e-06
-1.77335e-05
-9.54312e-06
-8.00535e-07
2.62661e-06
-1.5679e-06
4.71086e-06
-1.93249e-06
5.45508e-06
-2.04573e-06
5.76889e-06
-1.93949e-06
5.83361e-06
-1.60537e-06
5.81291e-06
-1.03533e-06
5.80424e-06
-2.44421e-07
5.83447e-06
7.07135e-07
5.86451e-06
1.70052e-06
5.79014e-06
2.54956e-06
5.46198e-06
3.00747e-06
4.71511e-06
2.80777e-06
3.38848e-06
1.68327e-06
1.31818e-06
-2.67406e-07
-1.68056e-06
-2.90365e-06
-5.69263e-06
-5.63203e-06
-1.06429e-05
-7.07055e-06
-1.60218e-05
-5.21052e-06
-1.95936e-05
-1.47536e-05
-3.35854e-06
5.98515e-06
-5.36852e-06
6.72084e-06
-5.59839e-06
5.68495e-06
-4.6477e-06
4.81821e-06
-3.05895e-06
4.24485e-06
-1.06677e-06
3.82073e-06
1.22093e-06
3.51653e-06
3.74519e-06
3.31021e-06
6.44986e-06
3.15984e-06
9.23625e-06
3.00375e-06
1.19386e-05
2.75968e-06
1.43151e-05
2.3386e-06
1.6046e-05
1.65751e-06
1.66727e-05
6.91512e-07
1.58977e-05
-9.056e-07
1.35575e-05
-3.35243e-06
9.45178e-06
-6.53713e-06
4.05111e-06
-1.06211e-05
-3.55401e-07
-1.5187e-05
-1.5109e-05
5.98515e-06
1.2706e-05
1.83909e-05
2.32091e-05
2.7454e-05
3.12747e-05
3.47913e-05
3.81015e-05
4.12613e-05
4.42651e-05
4.70248e-05
4.93634e-05
5.10209e-05
5.17124e-05
5.08068e-05
4.74543e-05
4.09172e-05
3.02961e-05
1.5109e-05
)
;

boundaryField
{
    movingWall
    {
        type            calculated;
        value           uniform 0;
    }
    fixedWalls
    {
        type            calculated;
        value           uniform 0;
    }
    frontAndBack
    {
        type            empty;
        value           nonuniform 0 ( );
    }
}


// ************************************************************************* //
