/*--------------------------------*- C++ -*----------------------------------*\
  =========                 |
  \\      /  F ield         | OpenFOAM: The Open Source CFD Toolbox
   \\    /   O peration     | Website:  https://openfoam.org
    \\  /    A nd           | Version:  7
     \\/     M anipulation  |
\*---------------------------------------------------------------------------*/
FoamFile
{
    version     2.0;
    format      ascii;
    class       volScalarField;
    location    "0.4";
    object      p;
}
// * * * * * * * * * * * * * * * * * * * * * * * * * * * * * * * * * * * * * //

dimensions      [0 2 -2 0 0 0 0];

internalField   nonuniform List<scalar> 
400
(
-7.70052e-09
-0.000309507
-0.000685558
-0.00115389
-0.00173603
-0.00245681
-0.00333289
-0.00437744
-0.00560052
-0.00699994
-0.00852292
-0.00992573
-0.0104183
-0.00818367
-0.000527471
0.0142928
0.0344035
0.05221
0.0590794
0.0532484
3.42616e-05
-0.000251712
-0.000592607
-0.00104431
-0.00161422
-0.00231583
-0.00315513
-0.00413134
-0.00523459
-0.00643915
-0.00768487
-0.00879788
-0.00921306
-0.00742631
-0.000824202
0.0126783
0.0317606
0.0493612
0.0568364
0.0520829
0.000128924
-0.000166484
-0.000482055
-0.000917382
-0.00147356
-0.00215603
-0.00296173
-0.00387968
-0.00489103
-0.00597783
-0.00715064
-0.00843593
-0.00956015
-0.00912989
-0.00418605
0.00810376
0.0266743
0.0451743
0.0542158
0.0508506
0.000280308
-6.05727e-05
-0.00035902
-0.000779571
-0.00132242
-0.00198716
-0.00276398
-0.00363755
-0.00459703
-0.00567753
-0.00705769
-0.00909106
-0.0117984
-0.0136359
-0.0109983
-0.00039951
0.0179009
0.0381089
0.0500394
0.0496643
0.000443627
5.06079e-05
-0.000233494
-0.000641765
-0.00117291
-0.00182133
-0.00257257
-0.00341419
-0.00436457
-0.00556403
-0.00745242
-0.010787
-0.0158032
-0.0205714
-0.0207342
-0.0122519
0.00542248
0.0275205
0.0435065
0.0482726
0.000598605
0.000145515
-0.00012636
-0.000525598
-0.00104701
-0.00167969
-0.00240691
-0.00322738
-0.00421194
-0.00565606
-0.00832557
-0.0133824
-0.0211387
-0.0291291
-0.0322934
-0.026213
-0.00968473
0.0138897
0.0344238
0.0458911
0.000711185
0.000195673
-6.48908e-05
-0.000457534
-0.000969492
-0.00158417
-0.00228464
-0.00308896
-0.00414128
-0.00592766
-0.00955855
-0.0165334
-0.0271023
-0.0382201
-0.044252
-0.0406087
-0.0257184
-0.00151735
0.0230224
0.0416267
0.000743357
0.000167472
-7.97005e-05
-0.000464931
-0.000963419
-0.0015521
-0.00221555
-0.00299769
-0.00412988
-0.00630057
-0.0109347
-0.0197626
-0.0328758
-0.0466979
-0.0551819
-0.0537542
-0.0408294
-0.0170102
0.0101375
0.0352237
0.000653686
2.35252e-05
-0.000202624
-0.000573505
-0.00104733
-0.00159359
-0.00219935
-0.00293846
-0.00413382
-0.00666244
-0.0121966
-0.0225825
-0.0377145
-0.0535998
-0.0639575
-0.0643445
-0.0534752
-0.0308993
-0.00281571
0.027443
0.000396003
-0.000276488
-0.000464764
-0.000805173
-0.0012334
-0.00171032
-0.00222585
-0.00288528
-0.0040982
-0.00689597
-0.0131126
-0.0246063
-0.0410958
-0.0583116
-0.0699298
-0.0716531
-0.0626892
-0.0418314
-0.014183
0.0198579
-8.31333e-05
-0.000775521
-0.000894736
-0.0011764
-0.00152668
-0.00189631
-0.00227783
-0.00280756
-0.00397091
-0.00690827
-0.0135291
-0.0256176
-0.0427927
-0.0606254
-0.072953
-0.0755367
-0.0681345
-0.0489649
-0.0224981
0.0144819
-0.000849463
-0.0015194
-0.00151697
-0.00169701
-0.00192547
-0.00214043
-0.00233613
-0.00267854
-0.00371668
-0.00665295
-0.0134
-0.0255911
-0.0428806
-0.0607095
-0.0733015
-0.0763131
-0.0699985
-0.0519883
-0.026855
0.013614
-0.00199031
-0.00255721
-0.00234921
-0.00236845
-0.00242165
-0.00242959
-0.00238587
-0.00248415
-0.00332792
-0.00613975
-0.0127879
-0.0246764
-0.0417146
-0.0590359
-0.0714737
-0.0746168
-0.0687876
-0.0510479
-0.0269468
0.0197496
-0.0036314
-0.00394046
-0.00339737
-0.0031795
-0.00299872
-0.00274969
-0.00242086
-0.00222974
-0.00283114
-0.00543311
-0.0118497
-0.0233518
-0.0395318
-0.0561723
-0.0682619
-0.0712062
-0.0651433
-0.0466617
-0.0221896
0.0350103
-0.00596917
-0.0057169
-0.00464357
-0.00409525
-0.00362287
-0.00307922
-0.00244052
-0.00194019
-0.00228786
-0.00463827
-0.01077
-0.0217369
-0.03705
-0.0528326
-0.064408
-0.0668014
-0.0597501
-0.0391386
-0.0102584
0.0601509
-0.00934403
-0.00790754
-0.00602328
-0.00503499
-0.00422147
-0.00336875
-0.00243127
-0.00164447
-0.00178063
-0.00386569
-0.00976545
-0.0201806
-0.0346871
-0.0495591
-0.0604603
-0.0618858
-0.0528145
-0.0276122
0.0104142
0.096773
-0.0144197
-0.0104541
-0.00740408
-0.00583624
-0.0046445
-0.00350404
-0.00232828
-0.00133163
-0.00130328
-0.00330228
-0.00898816
-0.0189156
-0.0326811
-0.0466266
-0.0566824
-0.0566546
-0.0443402
-0.011493
0.0412241
0.149299
-0.0224511
-0.0131424
-0.0084711
-0.00612368
-0.00457244
-0.00323688
-0.00195238
-0.000900073
-0.000876491
-0.00288514
-0.00846482
-0.0179871
-0.0310704
-0.0440779
-0.0531672
-0.0512626
-0.0347192
0.00880907
0.082439
0.222009
-0.0344561
-0.0146183
-0.00737248
-0.00474778
-0.00325948
-0.00202683
-0.000904335
-4.00031e-05
-0.000219146
-0.00237976
-0.00795384
-0.0171697
-0.0296606
-0.041815
-0.0500436
-0.0463217
-0.0257234
0.0296478
0.128761
0.311846
-0.0560394
-0.00728361
0.000320226
-7.34997e-05
0.000109337
0.000623304
0.00115526
0.00152595
0.000964878
-0.00146696
-0.00710525
-0.0161558
-0.0282451
-0.0398289
-0.0475297
-0.0429497
-0.0202903
0.0432218
0.164332
0.394817
)
;

boundaryField
{
    movingWall
    {
        type            zeroGradient;
    }
    fixedWalls
    {
        type            zeroGradient;
    }
    frontAndBack
    {
        type            empty;
    }
}


// ************************************************************************* //
