/*--------------------------------*- C++ -*----------------------------------*\
  =========                 |
  \\      /  F ield         | OpenFOAM: The Open Source CFD Toolbox
   \\    /   O peration     | Website:  https://openfoam.org
    \\  /    A nd           | Version:  7
     \\/     M anipulation  |
\*---------------------------------------------------------------------------*/
FoamFile
{
    version     2.0;
    format      ascii;
    class       surfaceScalarField;
    location    "0.4";
    object      phi;
}
// * * * * * * * * * * * * * * * * * * * * * * * * * * * * * * * * * * * * * //

dimensions      [0 3 -1 0 0 0 0];

internalField   nonuniform List<scalar> 
760
(
1.44047e-08
-1.44043e-08
5.20944e-09
9.19509e-09
-1.37396e-08
1.89486e-08
-3.51445e-08
2.14047e-08
-5.79169e-08
2.27726e-08
-8.44485e-08
2.6532e-08
-1.19636e-07
3.51874e-08
-1.71983e-07
5.23478e-08
-2.55818e-07
8.38341e-08
-3.94476e-07
1.38659e-07
-6.24303e-07
2.29827e-07
-9.93118e-07
3.68815e-07
-1.53274e-06
5.39622e-07
-2.18855e-06
6.55808e-07
-2.7481e-06
5.5955e-07
-2.89119e-06
1.43092e-07
-2.34837e-06
-5.42825e-07
-1.20902e-06
-1.13935e-06
-1.52254e-07
-1.05676e-06
-1.52254e-07
6.56219e-09
-2.09665e-08
-3.55342e-08
5.12911e-08
-1.03704e-07
8.71185e-08
-1.8137e-07
9.90708e-08
-2.65816e-07
1.07219e-07
-3.63721e-07
1.24437e-07
-4.89811e-07
1.61277e-07
-6.69899e-07
2.32436e-07
-9.46e-07
3.59935e-07
-1.38077e-06
5.7343e-07
-2.05336e-06
9.02413e-07
-3.02382e-06
1.33928e-06
-4.24198e-06
1.75778e-06
-5.44577e-06
1.85959e-06
-6.18388e-06
1.29766e-06
-6.03664e-06
-4.14999e-09
-4.80756e-06
-1.7719e-06
-2.70797e-06
-3.23895e-06
-6.39551e-07
-3.12518e-06
-7.91805e-07
-1.88186e-08
-2.14829e-09
-1.0896e-07
1.41432e-07
-2.35485e-07
2.13643e-07
-3.76679e-07
2.40266e-07
-5.29866e-07
2.60406e-07
-7.06242e-07
3.00813e-07
-9.30184e-07
3.85218e-07
-1.24367e-06
5.4592e-07
-1.71143e-06
8.27699e-07
-2.41922e-06
1.28121e-06
-3.44824e-06
1.93144e-06
-4.80158e-06
2.69262e-06
-6.29687e-06
3.25308e-06
-7.53857e-06
3.10129e-06
-8.0823e-06
1.84138e-06
-7.64689e-06
-4.39559e-07
-6.19295e-06
-3.22584e-06
-3.8391e-06
-5.59279e-06
-1.22682e-06
-5.73746e-06
-2.01862e-06
-5.42898e-08
5.21412e-08
-2.02063e-07
2.89205e-07
-3.91994e-07
4.03575e-07
-5.98707e-07
4.4698e-07
-8.20625e-07
4.82324e-07
-1.07348e-06
5.53668e-07
-1.39004e-06
7.01779e-07
-1.8245e-06
9.80382e-07
-2.45395e-06
1.45715e-06
-3.36466e-06
2.19192e-06
-4.60466e-06
3.17143e-06
-6.09666e-06
4.18462e-06
-7.56909e-06
4.72551e-06
-8.62393e-06
4.15614e-06
-8.9508e-06
2.16825e-06
-8.44304e-06
-9.47319e-07
-7.08275e-06
-4.58613e-06
-4.8134e-06
-7.86214e-06
-1.89551e-06
-8.65535e-06
-3.91413e-06
-9.55484e-08
1.47689e-07
-3.0555e-07
4.99206e-07
-5.59872e-07
6.57897e-07
-8.29546e-07
7.16655e-07
-1.1145e-06
7.67282e-07
-1.43426e-06
8.7342e-07
-1.82718e-06
1.0947e-06
-2.35309e-06
1.50629e-06
-3.08847e-06
2.19254e-06
-4.10101e-06
3.20445e-06
-5.39178e-06
4.46221e-06
-6.82241e-06
5.61525e-06
-8.10292e-06
6.00602e-06
-8.9172e-06
4.97042e-06
-9.10539e-06
2.35644e-06
-8.66414e-06
-1.38857e-06
-7.54631e-06
-5.70396e-06
-5.53862e-06
-9.86983e-06
-2.56135e-06
-1.16326e-05
-6.47549e-06
-1.39409e-07
2.87098e-07
-4.12972e-07
7.72769e-07
-7.29205e-07
9.74131e-07
-1.05557e-06
1.04302e-06
-1.39331e-06
1.10502e-06
-1.76409e-06
1.2442e-06
-2.20784e-06
1.53845e-06
-2.78235e-06
2.0808e-06
-3.5524e-06
2.96259e-06
-4.5578e-06
4.20985e-06
-5.7589e-06
5.66331e-06
-6.99182e-06
6.84817e-06
-8.00203e-06
7.01623e-06
-8.58088e-06
5.54927e-06
-8.68213e-06
2.45769e-06
-8.35014e-06
-1.72057e-06
-7.52265e-06
-6.53144e-06
-5.88659e-06
-1.15059e-05
-3.09702e-06
-1.44222e-05
-9.57251e-06
-1.84326e-07
4.71424e-07
-5.20267e-07
1.10871e-06
-8.93278e-07
1.34714e-06
-1.26725e-06
1.41699e-06
-1.64412e-06
1.4819e-06
-2.04547e-06
1.64554e-06
-2.5083e-06
2.00128e-06
-3.08167e-06
2.65417e-06
-3.81215e-06
3.69308e-06
-4.71197e-06
5.10967e-06
-5.71707e-06
6.66842e-06
-6.67068e-06
7.80178e-06
-7.3814e-06
7.72695e-06
-7.74003e-06
5.90789e-06
-7.7741e-06
2.49177e-06
-7.55313e-06
-1.94154e-06
-7.02727e-06
-7.0573e-06
-5.8279e-06
-1.27053e-05
-3.38729e-06
-1.68628e-05
-1.29598e-05
-2.29859e-07
7.01283e-07
-6.25506e-07
1.50436e-06
-1.0483e-06
1.76993e-06
-1.45886e-06
1.82756e-06
-1.85912e-06
1.88216e-06
-2.2682e-06
2.05462e-06
-2.71618e-06
2.44927e-06
-3.23892e-06
3.17691e-06
-3.863e-06
4.31716e-06
-4.57944e-06
5.8261e-06
-5.31773e-06
7.40671e-06
-5.95109e-06
8.43514e-06
-6.36037e-06
8.13622e-06
-6.51745e-06
6.06498e-06
-6.49631e-06
2.47062e-06
-6.38168e-06
-2.05617e-06
-6.15214e-06
-7.28684e-06
-5.41468e-06
-1.34427e-05
-3.41309e-06
-1.88644e-05
-1.63729e-05
-2.76555e-07
9.77837e-07
-7.28656e-07
1.95646e-06
-1.19303e-06
2.23431e-06
-1.62806e-06
2.26258e-06
-2.0352e-06
2.2893e-06
-2.42917e-06
2.44858e-06
-2.83031e-06
2.85042e-06
-3.25919e-06
3.60578e-06
-3.72416e-06
4.78213e-06
-4.2036e-06
6.30554e-06
-4.63569e-06
7.83881e-06
-4.937e-06
8.73644e-06
-5.06027e-06
8.2595e-06
-5.04015e-06
6.04485e-06
-4.97978e-06
2.41024e-06
-4.96866e-06
-2.06728e-06
-5.01603e-06
-7.23948e-06
-4.73397e-06
-1.37248e-05
-3.22479e-06
-2.03736e-05
-1.95977e-05
-3.25989e-07
1.30383e-06
-8.31389e-07
2.46186e-06
-1.32832e-06
2.73124e-06
-1.77509e-06
2.70935e-06
-2.17298e-06
2.68718e-06
-2.53117e-06
2.80677e-06
-2.85881e-06
3.17806e-06
-3.16109e-06
3.90807e-06
-3.43166e-06
5.0527e-06
-3.64433e-06
6.51822e-06
-3.7566e-06
7.95107e-06
-3.73402e-06
8.71386e-06
-3.59769e-06
8.12317e-06
-3.42875e-06
5.87591e-06
-3.34884e-06
2.33033e-06
-3.43999e-06
-1.97613e-06
-3.73266e-06
-6.94681e-06
-3.87528e-06
-1.35822e-05
-2.88073e-06
-2.13681e-05
-2.24784e-05
-3.80935e-07
1.68476e-06
-9.36903e-07
3.01782e-06
-1.45636e-06
3.2507e-06
-1.9016e-06
3.15459e-06
-2.27509e-06
3.06067e-06
-2.58044e-06
3.11213e-06
-2.81558e-06
3.41319e-06
-2.97147e-06
4.06396e-06
-3.03076e-06
5.11198e-06
-2.9686e-06
6.45606e-06
-2.76778e-06
7.75025e-06
-2.44213e-06
8.38821e-06
-2.07804e-06
7.75908e-06
-1.78783e-06
5.58571e-06
-1.70587e-06
2.24837e-06
-1.89643e-06
-1.78558e-06
-2.39382e-06
-6.44942e-06
-2.91071e-06
-1.30653e-05
-2.42964e-06
-2.18492e-05
-2.49081e-05
-4.45696e-07
2.13046e-06
-1.0497e-06
3.62183e-06
-1.57968e-06
3.78068e-06
-2.0087e-06
3.58362e-06
-2.34318e-06
3.39514e-06
-2.58251e-06
3.35146e-06
-2.71468e-06
3.54535e-06
-2.71827e-06
4.06755e-06
-2.56777e-06
4.96148e-06
-2.24226e-06
6.13055e-06
-1.75164e-06
7.25964e-06
-1.15163e-06
7.7882e-06
-5.9755e-07
7.205e-06
-2.16116e-07
5.20427e-06
-1.2737e-07
2.15962e-06
-4.09192e-07
-1.50375e-06
-1.05905e-06
-5.79956e-06
-1.88354e-06
-1.22408e-05
-1.90696e-06
-2.18257e-05
-2.6815e-05
-5.26734e-07
2.65719e-06
-1.17522e-06
4.27031e-06
-1.69929e-06
4.30475e-06
-2.09353e-06
3.97785e-06
-2.37268e-06
3.6743e-06
-2.5348e-06
3.51358e-06
-2.56082e-06
3.57138e-06
-2.41938e-06
3.92611e-06
-2.07848e-06
4.62058e-06
-1.5197e-06
5.57178e-06
-7.77944e-07
6.51788e-06
3.15427e-08
6.97871e-06
7.90602e-07
6.44594e-06
1.27458e-06
4.7203e-06
1.34891e-06
2.08529e-06
9.9827e-07
-1.15311e-06
2.58525e-07
-5.05982e-06
-8.21611e-07
-1.11607e-05
-1.31005e-06
-2.13373e-05
-2.81251e-05
-6.33816e-07
3.29101e-06
-1.31891e-06
4.95541e-06
-1.81103e-06
4.79687e-06
-2.14249e-06
4.30932e-06
-2.34267e-06
3.87447e-06
-2.41283e-06
3.58374e-06
-2.33179e-06
3.49035e-06
-2.06177e-06
3.65608e-06
-1.56555e-06
4.12436e-06
-8.2214e-07
4.82836e-06
1.21925e-07
5.57382e-06
1.14998e-06
5.95066e-06
2.03909e-06
5.55684e-06
2.60551e-06
4.15387e-06
2.70382e-06
1.98698e-06
2.3287e-06
-7.77992e-07
1.52861e-06
-4.25972e-06
2.39439e-07
-9.87148e-06
-4.89683e-07
-2.06082e-05
-2.86148e-05
-7.8217e-07
4.07318e-06
-1.48313e-06
5.65636e-06
-1.89628e-06
5.21003e-06
-2.11566e-06
4.52869e-06
-2.19426e-06
3.95307e-06
-2.14291e-06
3.53239e-06
-1.94512e-06
3.29256e-06
-1.56186e-06
3.27282e-06
-9.53345e-07
3.51584e-06
-8.72656e-08
3.96228e-06
9.81202e-07
4.50535e-06
2.14022e-06
4.79164e-06
3.15504e-06
4.54201e-06
3.82135e-06
3.48757e-06
3.99716e-06
1.81117e-06
3.66607e-06
-4.46906e-07
2.91252e-06
-3.50617e-06
1.64656e-06
-8.60553e-06
3.75094e-07
-1.93367e-05
-2.82397e-05
-9.95683e-07
5.06886e-06
-1.65469e-06
6.31537e-06
-1.8936e-06
5.44895e-06
-1.90553e-06
4.54063e-06
-1.78128e-06
3.82882e-06
-1.54753e-06
3.29865e-06
-1.19851e-06
2.94353e-06
-6.99083e-07
2.77339e-06
-2.05387e-09
2.81881e-06
9.08249e-07
3.05198e-06
2.02354e-06
3.39006e-06
3.23768e-06
3.57749e-06
4.33797e-06
3.44173e-06
5.11237e-06
2.71317e-06
5.42234e-06
1.5012e-06
5.20604e-06
-2.30604e-07
4.53729e-06
-2.83742e-06
3.20081e-06
-7.26905e-06
1.25663e-06
-1.73925e-05
-2.6983e-05
-1.29864e-06
6.3675e-06
-1.74876e-06
6.76548e-06
-1.60062e-06
5.3008e-06
-1.22153e-06
4.16154e-06
-7.55758e-07
3.36305e-06
-2.39922e-07
2.78281e-06
3.25324e-07
2.37829e-06
9.67894e-07
2.13082e-06
1.72888e-06
2.05783e-06
2.65815e-06
2.12271e-06
3.75041e-06
2.2978e-06
4.93708e-06
2.39082e-06
6.06207e-06
2.31674e-06
6.92007e-06
1.85516e-06
7.37892e-06
1.04236e-06
7.30721e-06
-1.58894e-07
6.70184e-06
-2.23206e-06
5.20178e-06
-5.76899e-06
2.49046e-06
-1.46812e-05
-2.44926e-05
-1.62385e-06
7.99135e-06
-1.34045e-06
6.48209e-06
-3.35459e-07
4.29581e-06
7.06136e-07
3.11994e-06
1.66537e-06
2.40382e-06
2.55e-06
1.89817e-06
3.37761e-06
1.55068e-06
4.18195e-06
1.32649e-06
5.01336e-06
1.22642e-06
5.92179e-06
1.21428e-06
6.9378e-06
1.28179e-06
8.01831e-06
1.31032e-06
9.07786e-06
1.25719e-06
9.93488e-06
9.98141e-07
1.04639e-05
5.13375e-07
1.04857e-05
-1.80714e-07
9.83734e-06
-1.58372e-06
8.03704e-06
-3.96869e-06
4.30354e-06
-1.09477e-05
-2.0189e-05
-1.09262e-06
9.08397e-06
1.61256e-06
3.77691e-06
3.90533e-06
2.00304e-06
5.6216e-06
1.40368e-06
6.99738e-06
1.02803e-06
8.13568e-06
7.5988e-07
9.10042e-06
5.85932e-07
9.94819e-06
4.78726e-07
1.07463e-05
4.28333e-07
1.15443e-05
4.16267e-07
1.23925e-05
4.33564e-07
1.32647e-05
4.38161e-07
1.41196e-05
4.02251e-07
1.48195e-05
2.98226e-07
1.52384e-05
9.45337e-08
1.52276e-05
-1.69994e-07
1.4421e-05
-7.77108e-07
1.22978e-05
-1.8455e-06
7.17033e-06
-5.8202e-06
-1.30187e-05
9.08397e-06
1.28609e-05
1.48639e-05
1.62676e-05
1.72956e-05
1.80555e-05
1.86414e-05
1.91202e-05
1.95485e-05
1.99648e-05
2.03983e-05
2.08365e-05
2.12387e-05
2.1537e-05
2.16315e-05
2.14615e-05
2.06844e-05
1.88389e-05
1.30187e-05
)
;

boundaryField
{
    movingWall
    {
        type            calculated;
        value           uniform 0;
    }
    fixedWalls
    {
        type            calculated;
        value           uniform 0;
    }
    frontAndBack
    {
        type            empty;
        value           nonuniform 0();
    }
}


// ************************************************************************* //
