/*--------------------------------*- C++ -*----------------------------------*\
  =========                 |
  \\      /  F ield         | OpenFOAM: The Open Source CFD Toolbox
   \\    /   O peration     | Website:  https://openfoam.org
    \\  /    A nd           | Version:  7
     \\/     M anipulation  |
\*---------------------------------------------------------------------------*/
FoamFile
{
    version     2.0;
    format      ascii;
    class       volVectorField;
    location    "0.4";
    object      U;
}
// * * * * * * * * * * * * * * * * * * * * * * * * * * * * * * * * * * * * * //

dimensions      [0 1 -1 0 0 0 0];

internalField   nonuniform List<vector> 
400
(
(0.000422559 -0.000179295 0)
(0.000562167 1.10957e-05 0)
(-0.000124201 7.72576e-05 0)
(-0.000957406 8.5385e-05 0)
(-0.00183374 8.58625e-05 0)
(-0.00278697 0.000101605 0)
(-0.00395982 0.000145754 0)
(-0.00560562 0.000238512 0)
(-0.00815991 0.000416933 0)
(-0.0123568 0.000750358 0)
(-0.01941 0.00137568 0)
(-0.0311883 0.002512 0)
(-0.0497676 0.00426963 0)
(-0.0751426 0.00610431 0)
(-0.101521 0.00642104 0)
(-0.116739 0.00349563 0)
(-0.108166 -0.00244649 0)
(-0.072529 -0.00857883 0)
(-0.0226405 -0.00823514 0)
(0.0027626 -0.00048027 0)
(0.000492948 -0.000444124 0)
(-0.000117119 0.000404263 0)
(-0.00265084 0.00079711 0)
(-0.00563911 0.000910806 0)
(-0.00885663 0.000979417 0)
(-0.0124046 0.00114142 0)
(-0.0166979 0.00150142 0)
(-0.0225044 0.00220892 0)
(-0.0311276 0.00350392 0)
(-0.0446385 0.00575576 0)
(-0.0660411 0.00947135 0)
(-0.0988791 0.0149943 0)
(-0.144748 0.0213964 0)
(-0.197692 0.0250466 0)
(-0.240607 0.0203433 0)
(-0.252548 0.0042168 0)
(-0.222134 -0.0190665 0)
(-0.152409 -0.0394055 0)
(-0.0616331 -0.0371592 0)
(-0.00226632 -0.00700055 0)
(0.000140874 -0.000377672 0)
(-0.00189318 0.00166881 0)
(-0.00669471 0.00270189 0)
(-0.0121449 0.0030693 0)
(-0.0179854 0.00333119 0)
(-0.0244104 0.00386117 0)
(-0.0321054 0.0049781 0)
(-0.0423372 0.0071249 0)
(-0.0571893 0.0109552 0)
(-0.079736 0.0173156 0)
(-0.113795 0.0269221 0)
(-0.162366 0.0391272 0)
(-0.223314 0.0496829 0)
(-0.283901 0.0501525 0)
(-0.322707 0.032492 0)
(-0.322811 -0.00369084 0)
(-0.281326 -0.0489967 0)
(-0.203112 -0.0865648 0)
(-0.100407 -0.0850709 0)
(-0.0117815 -0.0249148 0)
(-0.00042783 0.000322843 0)
(-0.00429909 0.00402478 0)
(-0.0116611 0.00586907 0)
(-0.0197006 0.00656882 0)
(-0.0281991 0.00711545 0)
(-0.0374653 0.00820141 0)
(-0.0484344 0.0104568 0)
(-0.0627882 0.0147332 0)
(-0.0831478 0.0221767 0)
(-0.112994 0.0339821 0)
(-0.155795 0.0504262 0)
(-0.212493 0.0686251 0)
(-0.27689 0.0801722 0)
(-0.332845 0.0730821 0)
(-0.361471 0.0400188 0)
(-0.354534 -0.0149295 0)
(-0.313957 -0.0798565 0)
(-0.240659 -0.135481 0)
(-0.139519 -0.142436 0)
(-0.0248134 -0.0552806 0)
(-0.00111412 0.00181813 0)
(-0.00705142 0.00759815 0)
(-0.0171029 0.0103268 0)
(-0.0276909 0.0113649 0)
(-0.0386823 0.0122325 0)
(-0.0504979 0.0139981 0)
(-0.0642609 0.0176624 0)
(-0.081901 0.024525 0)
(-0.106207 0.0361509 0)
(-0.140406 0.0537345 0)
(-0.186815 0.0764106 0)
(-0.244119 0.0984554 0)
(-0.303674 0.107891 0)
(-0.349652 0.0913544 0)
(-0.368914 0.0442677 0)
(-0.360518 -0.0254742 0)
(-0.326858 -0.106033 0)
(-0.264361 -0.180057 0)
(-0.172556 -0.203233 0)
(-0.0396799 -0.0995697 0)
(-0.00185903 0.00416513 0)
(-0.00996156 0.0124416 0)
(-0.0226946 0.0160574 0)
(-0.0356507 0.0173671 0)
(-0.048811 0.0185201 0)
(-0.0626769 0.0209927 0)
(-0.0784565 0.0261691 0)
(-0.098101 0.0357557 0)
(-0.124178 0.0515563 0)
(-0.159183 0.0743865 0)
(-0.204088 0.101819 0)
(-0.256027 0.125397 0)
(-0.305843 0.13077 0)
(-0.340257 0.10497 0)
(-0.351993 0.0467853 0)
(-0.344487 -0.0335664 0)
(-0.319376 -0.126118 0)
(-0.270392 -0.217745 0)
(-0.193279 -0.262582 0)
(-0.0521043 -0.157443 0)
(-0.00263833 0.00740304 0)
(-0.0129233 0.0185524 0)
(-0.0282221 0.0229833 0)
(-0.0432585 0.0244207 0)
(-0.0581443 0.0257368 0)
(-0.0734087 0.0288171 0)
(-0.0902139 0.0353925 0)
(-0.110301 0.0474738 0)
(-0.135714 0.0668963 0)
(-0.168034 0.0938337 0)
(-0.207143 0.124235 0)
(-0.249594 0.147459 0)
(-0.287175 0.148 0)
(-0.309975 0.114313 0)
(-0.315338 0.0482304 0)
(-0.309059 -0.0389177 0)
(-0.292791 -0.139588 0)
(-0.258577 -0.24661 0)
(-0.200092 -0.316325 0)
(-0.0577982 -0.224823 0)
(-0.00345219 0.0115458 0)
(-0.0158968 0.0258876 0)
(-0.0335722 0.0309797 0)
(-0.0503247 0.0323209 0)
(-0.0664148 0.0335831 0)
(-0.0823367 0.0370282 0)
(-0.099076 0.0446574 0)
(-0.117975 0.0586573 0)
(-0.140397 0.0807263 0)
(-0.167056 0.110302 0)
(-0.197205 0.141927 0)
(-0.227676 0.1635 0)
(-0.25208 0.15933 0)
(-0.263889 0.119681 0)
(-0.263693 0.0487464 0)
(-0.258586 -0.0417396 0)
(-0.251166 -0.146526 0)
(-0.231794 -0.265799 0)
(-0.194822 -0.361675 0)
(-0.0557114 -0.295234 0)
(-0.00432303 0.0166075 0)
(-0.0189018 0.0343846 0)
(-0.0387211 0.0398922 0)
(-0.0567751 0.0408332 0)
(-0.0735089 0.0417311 0)
(-0.0893263 0.0451594 0)
(-0.104932 0.053288 0)
(-0.12115 0.068357 0)
(-0.138634 0.091833 0)
(-0.15742 0.122477 0)
(-0.176596 0.153816 0)
(-0.193886 0.173009 0)
(-0.205178 0.164858 0)
(-0.207044 0.121385 0)
(-0.202234 0.0484376 0)
(-0.198411 -0.0423007 0)
(-0.199606 -0.147436 0)
(-0.19406 -0.275337 0)
(-0.180494 -0.397022 0)
(-0.0475703 -0.363201 0)
(-0.00529834 0.0226239 0)
(-0.0220153 0.0439774 0)
(-0.0437213 0.0495479 0)
(-0.062625 0.0497081 0)
(-0.0794316 0.0498511 0)
(-0.0944233 0.0527682 0)
(-0.107961 0.0606861 0)
(-0.120305 0.0758006 0)
(-0.131457 0.0993297 0)
(-0.141002 0.129531 0)
(-0.148225 0.159381 0)
(-0.152107 0.175936 0)
(-0.150991 0.164945 0)
(-0.1442 0.119848 0)
(-0.13593 0.0475369 0)
(-0.133654 -0.0408204 0)
(-0.143013 -0.143076 0)
(-0.149308 -0.275831 0)
(-0.160066 -0.421612 0)
(-0.0353326 -0.425241 0)
(-0.00645752 0.0296745 0)
(-0.0253741 0.0546071 0)
(-0.048684 0.0597585 0)
(-0.067941 0.0586872 0)
(-0.0842488 0.0576298 0)
(-0.0977728 0.0594741 0)
(-0.10852 0.0663887 0)
(-0.116204 0.0804565 0)
(-0.120265 0.102692 0)
(-0.120027 0.131086 0)
(-0.115205 0.158547 0)
(-0.106158 0.17255 0)
(-0.0936932 0.160124 0)
(-0.0795336 0.115568 0)
(-0.0689754 0.0463141 0)
(-0.068477 -0.0374828 0)
(-0.0853893 -0.13437 0)
(-0.100685 -0.268287 0)
(-0.135888 -0.435417 0)
(-0.0202133 -0.47908 0)
(-0.00792394 0.0379097 0)
(-0.0291815 0.0662237 0)
(-0.0537559 0.0703094 0)
(-0.0727823 0.0674964 0)
(-0.0879906 0.0647739 0)
(-0.099478 0.0649765 0)
(-0.106949 0.0701005 0)
(-0.109632 0.0820653 0)
(-0.106507 0.101764 0)
(-0.0967373 0.127172 0)
(-0.0805491 0.151596 0)
(-0.0595647 0.163323 0)
(-0.0369842 0.151042 0)
(-0.0165548 0.109016 0)
(-0.00459239 0.0448437 0)
(-0.00580041 -0.0324529 0)
(-0.029446 -0.122343 0)
(-0.0501565 -0.253962 0)
(-0.109384 -0.439325 0)
(-0.00265902 -0.522864 0)
(-0.00988511 0.0475886 0)
(-0.0337207 0.078773 0)
(-0.0590795 0.0809278 0)
(-0.0770991 0.0758158 0)
(-0.0904813 0.0709864 0)
(-0.0993509 0.0690424 0)
(-0.103231 0.0716932 0)
(-0.100981 0.0806442 0)
(-0.0912172 0.0967503 0)
(-0.0729351 0.118191 0)
(-0.0467975 0.139134 0)
(-0.0152926 0.149119 0)
(0.0160779 0.137941 0)
(0.0418461 0.10051 0)
(0.0548608 0.043425 0)
(0.0528145 -0.0259247 0)
(0.0236676 -0.108025 0)
(0.00150931 -0.234326 0)
(-0.0806741 -0.435127 0)
(0.0179158 -0.554534 0)
(-0.012626 0.0591379 0)
(-0.0393744 0.0921536 0)
(-0.0647077 0.0912127 0)
(-0.0805263 0.0832063 0)
(-0.0910044 0.075895 0)
(-0.096436 0.0714385 0)
(-0.0963651 0.0711494 0)
(-0.0894668 0.076449 0)
(-0.0741279 0.0882055 0)
(-0.0490655 0.104916 0)
(-0.0150901 0.121999 0)
(0.0246495 0.130526 0)
(0.0632216 0.121336 0)
(0.0941839 0.0900004 0)
(0.108434 0.0417818 0)
(0.107415 -0.0185643 0)
(0.0747125 -0.0926228 0)
(0.0546909 -0.211276 0)
(-0.0480937 -0.424091 0)
(0.0434272 -0.57222 0)
(-0.016583 0.0732631 0)
(-0.0466432 0.106111 0)
(-0.0703688 0.100497 0)
(-0.0818828 0.088961 0)
(-0.0875539 0.078896 0)
(-0.0880325 0.0717758 0)
(-0.0831628 0.0684128 0)
(-0.0716772 0.0698437 0)
(-0.0519693 0.0769413 0)
(-0.0223317 0.0884817 0)
(0.0165351 0.101446 0)
(0.0617665 0.108249 0)
(0.105418 0.101945 0)
(0.141544 0.0774535 0)
(0.157839 0.0390214 0)
(0.161024 -0.011474 0)
(0.127147 -0.0772309 0)
(0.112127 -0.18573 0)
(-0.00772585 -0.404117 0)
(0.0770128 -0.575989 0)
(-0.0224253 0.0911403 0)
(-0.0560874 0.119997 0)
(-0.0746427 0.107574 0)
(-0.077728 0.0917833 0)
(-0.0749822 0.0788512 0)
(-0.0675959 0.0692265 0)
(-0.0559727 0.0631101 0)
(-0.03908 0.0610192 0)
(-0.015669 0.0637134 0)
(0.0166023 0.0703575 0)
(0.0570777 0.0791158 0)
(0.104645 0.0839296 0)
(0.150387 0.0803147 0)
(0.191557 0.0627035 0)
(0.21049 0.0340546 0)
(0.221498 -0.00597231 0)
(0.188005 -0.0630211 0)
(0.179015 -0.159975 0)
(0.0436321 -0.372847 0)
(0.12056 -0.56346 0)
(-0.0310838 0.114383 0)
(-0.0676243 0.132092 0)
(-0.0715577 0.109613 0)
(-0.0578354 0.0889253 0)
(-0.0402905 0.0735197 0)
(-0.0202988 0.0621082 0)
(0.00130866 0.0541832 0)
(0.0255433 0.0496441 0)
(0.0530736 0.0489917 0)
(0.0871289 0.0516165 0)
(0.126357 0.0565323 0)
(0.173517 0.0592675 0)
(0.217447 0.0574414 0)
(0.262711 0.0459166 0)
(0.283143 0.0261967 0)
(0.303954 -0.00296557 0)
(0.270498 -0.0495642 0)
(0.26641 -0.129836 0)
(0.113377 -0.323578 0)
(0.178035 -0.525413 0)
(-0.0429891 0.142598 0)
(-0.0736037 0.13526 0)
(-0.0363366 0.0980351 0)
(0.00785166 0.0747902 0)
(0.0479333 0.0592111 0)
(0.0850683 0.0479041 0)
(0.119095 0.0399867 0)
(0.151995 0.0348458 0)
(0.183697 0.0326589 0)
(0.219195 0.0327165 0)
(0.255138 0.0347914 0)
(0.299731 0.0358179 0)
(0.337667 0.0347461 0)
(0.384002 0.0280369 0)
(0.401969 0.0157973 0)
(0.430215 -0.00241294 0)
(0.393567 -0.035775 0)
(0.389463 -0.0926027 0)
(0.214651 -0.251105 0)
(0.258439 -0.447426 0)
(-0.0700382 0.188823 0)
(0.00611683 0.107633 0)
(0.114345 0.0641018 0)
(0.193864 0.0462147 0)
(0.254767 0.0350082 0)
(0.304819 0.0268377 0)
(0.346157 0.021238 0)
(0.382752 0.0175724 0)
(0.414171 0.0157302 0)
(0.447252 0.0151263 0)
(0.476693 0.0156721 0)
(0.514541 0.0158622 0)
(0.542525 0.0150233 0)
(0.582767 0.0118431 0)
(0.592818 0.00526026 0)
(0.619784 -0.00313972 0)
(0.576674 -0.0216288 0)
(0.565934 -0.0504801 0)
(0.372862 -0.153446 0)
(0.381566 -0.312056 0)
(0.347482 0.127265 0)
(0.446106 0.0686833 0)
(0.554549 0.0357334 0)
(0.626993 0.0215156 0)
(0.674631 0.0141065 0)
(0.709285 0.00954692 0)
(0.735283 0.00671759 0)
(0.756668 0.00498913 0)
(0.773735 0.00406557 0)
(0.79131 0.00366521 0)
(0.806113 0.0036267 0)
(0.825558 0.00362014 0)
(0.838381 0.00323847 0)
(0.85779 0.00243794 0)
(0.857652 0.000371555 0)
(0.867554 -0.0016824 0)
(0.829248 -0.00690777 0)
(0.810725 -0.0145601 0)
(0.652503 -0.0438033 0)
(0.604183 -0.108019 0)
)
;

boundaryField
{
    movingWall
    {
        type            fixedValue;
        value           uniform (1 0 0);
    }
    fixedWalls
    {
        type            noSlip;
    }
    frontAndBack
    {
        type            empty;
    }
}


// ************************************************************************* //
